<?xml version="1.0"?> 
<VTKFile type="StructuredGrid" version="0.1"> 
<StructuredGrid WholeExtent="0 100 0 100 0 0"> 
<Piece Extent="0 100 0 100 0 0"> 
<PointData Scalars="u">
<DataArray type="Float32" Name="u" format="ascii" NumberOfComponents="1"> 
0 0.0408138 0.0814026 0.121766 0.161905 0.201819 0.241508 0.280972 0.320211 0.359226 0.398015 0.436579 0.474753 0.512285 0.549173 0.585417 0.621017 0.655972 0.690284 0.723951 0.756974 0.789353 0.821088 0.852077 0.882094 0.91113 0.939185 0.96626 0.992353 1.01747 1.0416 1.06475 1.08692 1.10811 1.12827 1.14725 1.16503 1.18161 1.19699 1.21118 1.22417 1.23596 1.24655 1.25595 1.26415 1.27114 1.27686 1.28132 1.2845 1.2864 1.28704 1.2864 1.2845 1.28132 1.27686 1.27114 1.26415 1.25595 1.24655 1.23596 1.22417 1.21118 1.19699 1.18161 1.16503 1.14725 1.12827 1.10811 1.08692 1.06475 1.0416 1.01747 0.992353 0.96626 0.939185 0.91113 0.882094 0.852077 0.821088 0.789353 0.756974 0.723951 0.690284 0.655972 0.621017 0.585417 0.549173 0.512285 0.474753 0.436579 0.398015 0.359226 0.320211 0.280972 0.241508 0.201819 0.161905 0.121766 0.0814026 0.0408138 0 0 0.0396601 0.0791018 0.118325 0.15733 0.196116 0.234684 0.273034 0.311165 0.349078 0.386772 0.424248 0.461345 0.497818 0.533666 0.568888 0.603484 0.637455 0.6708 0.703519 0.735613 0.767081 0.797924 0.828041 0.857214 0.885434 0.912701 0.939015 0.964376 0.988784 1.01224 1.03474 1.05629 1.07689 1.09648 1.11493 1.13221 1.14833 1.16328 1.17707 1.18969 1.20115 1.21145 1.22058 1.22855 1.23535 1.24091 1.24524 1.24833 1.25019 1.2508 1.25019 1.24833 1.24524 1.24091 1.23535 1.22855 1.22058 1.21145 1.20115 1.18969 1.17707 1.16328 1.14833 1.13221 1.11493 1.09648 1.07689 1.05629 1.03474 1.01224 0.988784 0.964376 0.939015 0.912701 0.885434 0.857214 0.828041 0.797924 0.767081 0.735613 0.703519 0.6708 0.637455 0.603484 0.568888 0.533666 0.497818 0.461345 0.424248 0.386772 0.349078 0.311165 0.273034 0.234684 0.196116 0.15733 0.118325 0.0791018 0.0396601 0 0 0.0385412 0.0768704 0.114987 0.152892 0.190585 0.228066 0.265335 0.302391 0.339236 0.375868 0.412289 0.44834 0.483787 0.518626 0.552857 0.58648 0.619495 0.651903 0.683703 0.714895 0.745479 0.775456 0.804728 0.833082 0.860511 0.887013 0.912589 0.937239 0.960963 0.983761 1.00563 1.02658 1.0466 1.06565 1.08358 1.10037 1.11604 1.13057 1.14398 1.15625 1.16739 1.1774 1.18628 1.19402 1.20063 1.20604 1.21025 1.21325 1.21505 1.21565 1.21505 1.21325 1.21025 1.20604 1.20063 1.19402 1.18628 1.1774 1.16739 1.15625 1.14398 1.13057 1.11604 1.10037 1.08358 1.06565 1.0466 1.02658 1.00563 0.983761 0.960963 0.937239 0.912589 0.887013 0.860511 0.833082 0.804728 0.775456 0.745479 0.714895 0.683703 0.651903 0.619495 0.58648 0.552857 0.518626 0.483787 0.44834 0.412289 0.375868 0.339236 0.302391 0.265335 0.228066 0.190585 0.152892 0.114987 0.0768704 0.0385412 0 0 0.0374572 0.0747085 0.111754 0.148593 0.185226 0.221654 0.257875 0.293891 0.3297 0.365303 0.400701 0.435741 0.470192 0.504053 0.537324 0.570004 0.602093 0.633593 0.664501 0.69482 0.724547 0.753685 0.782138 0.809699 0.83636 0.862121 0.886982 0.910943 0.934004 0.956165 0.977426 0.997788 1.01725 1.03577 1.05319 1.06952 1.08475 1.09888 1.11191 1.12384 1.13467 1.1444 1.15303 1.16056 1.16698 1.17224 1.17633 1.17925 1.18101 1.18159 1.18101 1.17925 1.17633 1.17224 1.16698 1.16056 1.15303 1.1444 1.13467 1.12384 1.11191 1.09888 1.08475 1.06952 1.05319 1.03577 1.01725 0.997788 0.977426 0.956165 0.934004 0.910943 0.886982 0.862121 0.83636 0.809699 0.782138 0.753685 0.724547 0.69482 0.664501 0.633593 0.602093 0.570004 0.537324 0.504053 0.470192 0.435741 0.400701 0.365303 0.3297 0.293891 0.257875 0.221654 0.185226 0.148593 0.111754 0.0747085 0.0374572 0 0 0.0364081 0.072616 0.108624 0.144432 0.18004 0.215447 0.250655 0.285663 0.32047 0.355078 0.389485 0.423545 0.457033 0.489948 0.522288 0.554056 0.585249 0.615869 0.645915 0.675387 0.704286 0.732611 0.760271 0.787063 0.812982 0.838025 0.862193 0.885487 0.907907 0.929451 0.950121 0.969916 0.988836 1.00684 1.02378 1.03966 1.05446 1.0682 1.08087 1.09247 1.10299 1.11246 1.12085 1.12817 1.13441 1.13952 1.1435 1.14634 1.14805 1.14861 1.14805 1.14634 1.1435 1.13952 1.13441 1.12817 1.12085 1.11246 1.10299 1.09247 1.08087 1.0682 1.05446 1.03966 1.02378 1.00684 0.988836 0.969916 0.950121 0.929451 0.907907 0.885487 0.862193 0.838025 0.812982 0.787063 0.760271 0.732611 0.704286 0.675387 0.645915 0.615869 0.585249 0.554056 0.522288 0.489948 0.457033 0.423545 0.389485 0.355078 0.32047 0.285663 0.250655 0.215447 0.18004 0.144432 0.108624 0.072616 0.0364081 0 0 0.0353937 0.070593 0.105598 0.140409 0.175025 0.209447 0.243674 0.277707 0.311546 0.345191 0.378641 0.411753 0.44431 0.476309 0.507751 0.538635 0.568962 0.598732 0.627943 0.656597 0.684694 0.712233 0.739126 0.765176 0.790376 0.814725 0.838224 0.860872 0.882671 0.903619 0.923716 0.942963 0.96136 0.978865 0.99534 1.01078 1.02517 1.03853 1.05085 1.06212 1.07236 1.08156 1.08972 1.09684 1.10291 1.10788 1.11175 1.11451 1.11617 1.11672 1.11617 1.11451 1.11175 1.10788 1.10291 1.09684 1.08972 1.08156 1.07236 1.06212 1.05085 1.03853 1.02517 1.01078 0.99534 0.978865 0.96136 0.942963 0.923716 0.903619 0.882671 0.860872 0.838224 0.814725 0.790376 0.765176 0.739126 0.712233 0.684694 0.656597 0.627943 0.598732 0.568962 0.538635 0.507751 0.476309 0.44431 0.411753 0.378641 0.345191 0.311546 0.277707 0.243674 0.209447 0.175025 0.140409 0.105598 0.070593 0.0353937 0 0 0.0344142 0.0686395 0.102676 0.136523 0.170182 0.203652 0.236933 0.270025 0.302928 0.335643 0.368168 0.400365 0.432023 0.463138 0.493712 0.523743 0.553233 0.582181 0.610587 0.638451 0.665773 0.692553 0.718705 0.744037 0.768542 0.792221 0.815073 0.837098 0.858296 0.878668 0.898213 0.916931 0.934822 0.951846 0.967868 0.98288 0.996881 1.00987 1.02185 1.03282 1.04278 1.05172 1.05966 1.06658 1.07249 1.07732 1.08108 1.08377 1.08538 1.08592 1.08538 1.08377 1.08108 1.07732 1.07249 1.06658 1.05966 1.05172 1.04278 1.03282 1.02185 1.00987 0.996881 0.98288 0.967868 0.951846 0.934822 0.916931 0.898213 0.878668 0.858296 0.837098 0.815073 0.792221 0.768542 0.744037 0.718705 0.692553 0.665773 0.638451 0.610587 0.582181 0.553233 0.523743 0.493712 0.463138 0.432023 0.400365 0.368168 0.335643 0.302928 0.270025 0.236933 0.203652 0.170182 0.136523 0.102676 0.0686395 0.0344142 0 0 0.0334695 0.0667554 0.0998577 0.132776 0.165512 0.198063 0.230431 0.262616 0.294616 0.326434 0.358067 0.389382 0.420172 0.450434 0.48017 0.509379 0.538061 0.566217 0.593845 0.620947 0.647521 0.673569 0.699006 0.723646 0.747481 0.770513 0.792741 0.814164 0.834784 0.854599 0.873611 0.891818 0.909221 0.925781 0.941367 0.955969 0.969588 0.982224 0.993877 1.00455 1.01423 1.02293 1.03065 1.03739 1.04313 1.04784 1.0515 1.05411 1.05568 1.0562 1.05568 1.05411 1.0515 1.04784 1.04313 1.03739 1.03065 1.02293 1.01423 1.00455 0.993877 0.982224 0.969588 0.955969 0.941367 0.925781 0.909221 0.891818 0.873611 0.854599 0.834784 0.814164 0.792741 0.770513 0.747481 0.723646 0.699006 0.673569 0.647521 0.620947 0.593845 0.566217 0.538061 0.509379 0.48017 0.450434 0.420172 0.389382 0.358067 0.326434 0.294616 0.262616 0.230431 0.198063 0.165512 0.132776 0.0998577 0.0667554 0.0334695 0 0 0.0325596 0.0649407 0.0971433 0.129167 0.161013 0.19268 0.224169 0.255479 0.28661 0.317564 0.348338 0.378802 0.408756 0.438198 0.467127 0.495543 0.523447 0.550839 0.577719 0.604085 0.62994 0.655282 0.68003 0.704003 0.727193 0.749601 0.771227 0.792071 0.812133 0.831412 0.84991 0.867625 0.884558 0.90067 0.915835 0.930043 0.943294 0.955589 0.966927 0.977308 0.986732 0.9952 1.00271 1.00927 1.01485 1.01943 1.02299 1.02553 1.02706 1.02757 1.02706 1.02553 1.02299 1.01943 1.01485 1.00927 1.00271 0.9952 0.986732 0.977308 0.966927 0.955589 0.943294 0.930043 0.915835 0.90067 0.884558 0.867625 0.84991 0.831412 0.812133 0.792071 0.771227 0.749601 0.727193 0.704003 0.68003 0.655282 0.62994 0.604085 0.577719 0.550839 0.523447 0.495543 0.467127 0.438198 0.408756 0.378802 0.348338 0.317564 0.28661 0.255479 0.224169 0.19268 0.161013 0.129167 0.0971433 0.0649407 0.0325596 0 0 0.0316846 0.0631955 0.0945328 0.125696 0.156687 0.187503 0.218146 0.248615 0.278911 0.309032 0.338981 0.368627 0.397777 0.426428 0.454581 0.482235 0.509391 0.536048 0.562207 0.587867 0.613029 0.637692 0.661777 0.685108 0.707677 0.729485 0.750533 0.770819 0.790344 0.809107 0.82711 0.844351 0.860832 0.876513 0.891273 0.905101 0.917999 0.929965 0.941 0.951104 0.960277 0.968518 0.975828 0.982208 0.987647 0.992101 0.995566 0.998041 0.999526 1.00002 0.999526 0.998041 0.995566 0.992101 0.987647 0.982208 0.975828 0.968518 0.960277 0.951104 0.941 0.929965 0.917999 0.905101 0.891273 0.876513 0.860832 0.844351 0.82711 0.809107 0.790344 0.770819 0.750533 0.729485 0.707677 0.685108 0.661777 0.637692 0.613029 0.587867 0.562207 0.536048 0.509391 0.482235 0.454581 0.426428 0.397777 0.368627 0.338981 0.309032 0.278911 0.248615 0.218146 0.187503 0.156687 0.125696 0.0945328 0.0631955 0.0316846 0 0 0.0308443 0.0615197 0.0920262 0.122364 0.152532 0.182532 0.212362 0.242024 0.271517 0.30084 0.329995 0.358856 0.387234 0.415126 0.442533 0.469455 0.495892 0.521844 0.54731 0.572292 0.596788 0.620799 0.644247 0.666961 0.688934 0.710166 0.730657 0.750407 0.769416 0.787684 0.805211 0.821998 0.838043 0.853311 0.867681 0.881145 0.893702 0.905353 0.916097 0.925934 0.934865 0.942889 0.950007 0.956218 0.961513 0.965851 0.969224 0.971634 0.97308 0.973561 0.97308 0.971634 0.969224 0.965851 0.961513 0.956218 0.950007 0.942889 0.934865 0.925934 0.916097 0.905353 0.893702 0.881145 0.867681 0.853311 0.838043 0.821998 0.805211 0.787684 0.769416 0.750407 0.730657 0.710166 0.688934 0.666961 0.644247 0.620799 0.596788 0.572292 0.54731 0.521844 0.495892 0.469455 0.442533 0.415126 0.387234 0.358856 0.329995 0.30084 0.271517 0.242024 0.212362 0.182532 0.152532 0.122364 0.0920262 0.0615197 0.0308443 0 0 0.030039 0.0599134 0.0896234 0.119169 0.14855 0.177766 0.206818 0.235706 0.264429 0.292987 0.321381 0.349489 0.377126 0.404291 0.430983 0.457203 0.482951 0.508226 0.533029 0.557359 0.581217 0.604602 0.62744 0.649562 0.670963 0.691642 0.711599 0.730835 0.74935 0.767143 0.784214 0.800564 0.816192 0.831063 0.845059 0.858173 0.870404 0.881752 0.892216 0.901798 0.910497 0.918312 0.925245 0.931295 0.936453 0.940678 0.943964 0.946311 0.947719 0.948188 0.947719 0.946311 0.943964 0.940678 0.936453 0.931295 0.925245 0.918312 0.910497 0.901798 0.892216 0.881752 0.870404 0.858173 0.845059 0.831063 0.816192 0.800564 0.784214 0.767143 0.74935 0.730835 0.711599 0.691642 0.670963 0.649562 0.62744 0.604602 0.581217 0.557359 0.533029 0.508226 0.482951 0.457203 0.430983 0.404291 0.377126 0.349489 0.321381 0.292987 0.264429 0.235706 0.206818 0.177766 0.14855 0.119169 0.0896234 0.0599134 0.030039 0 0 0.0292648 0.0583694 0.0873137 0.116098 0.144722 0.173185 0.201489 0.229632 0.257615 0.285438 0.313101 0.340484 0.36741 0.393875 0.41988 0.445425 0.47051 0.495135 0.519299 0.543004 0.566248 0.589032 0.611282 0.632835 0.653686 0.673833 0.693278 0.712019 0.730058 0.747394 0.764026 0.779956 0.795183 0.809672 0.823309 0.836086 0.848003 0.85906 0.869256 0.878592 0.887067 0.894682 0.901437 0.907332 0.912357 0.916474 0.919675 0.921962 0.923334 0.923792 0.923334 0.921962 0.919675 0.916474 0.912357 0.907332 0.901437 0.894682 0.887067 0.878592 0.869256 0.85906 0.848003 0.836086 0.823309 0.809672 0.795183 0.779956 0.764026 0.747394 0.730058 0.712019 0.693278 0.673833 0.653686 0.632835 0.611282 0.589032 0.566248 0.543004 0.519299 0.495135 0.47051 0.445425 0.41988 0.393875 0.36741 0.340484 0.313101 0.285438 0.257615 0.229632 0.201489 0.173185 0.144722 0.116098 0.0873137 0.0583694 0.0292648 0 0 0.0285164 0.0568768 0.085081 0.113129 0.141021 0.168757 0.196337 0.223761 0.251029 0.27814 0.305096 0.33178 0.358017 0.383806 0.409147 0.434039 0.458483 0.482479 0.506027 0.529126 0.551776 0.573979 0.595661 0.616665 0.636983 0.656617 0.675565 0.693829 0.711407 0.728301 0.74451 0.760034 0.774872 0.788992 0.802282 0.814734 0.826347 0.837122 0.847058 0.856156 0.864416 0.871837 0.87842 0.884164 0.889062 0.893074 0.896194 0.898423 0.89976 0.900206 0.89976 0.898423 0.896194 0.893074 0.889062 0.884164 0.87842 0.871837 0.864416 0.856156 0.847058 0.837122 0.826347 0.814734 0.802282 0.788992 0.774872 0.760034 0.74451 0.728301 0.711407 0.693829 0.675565 0.656617 0.636983 0.616665 0.595661 0.573979 0.551776 0.529126 0.506027 0.482479 0.458483 0.434039 0.409147 0.383806 0.358017 0.33178 0.305096 0.27814 0.251029 0.223761 0.196337 0.168757 0.141021 0.113129 0.085081 0.0568768 0.0285164 0 0 0.0277938 0.0554354 0.082925 0.110262 0.137448 0.164481 0.191362 0.218091 0.244668 0.271093 0.297366 0.323374 0.348947 0.374083 0.398782 0.423044 0.44687 0.470258 0.49321 0.515724 0.537802 0.559443 0.580577 0.601049 0.620854 0.639991 0.65846 0.676262 0.693397 0.709864 0.725663 0.740794 0.755259 0.769022 0.781976 0.794113 0.805433 0.815936 0.825622 0.83449 0.842541 0.849775 0.856192 0.861791 0.866566 0.870476 0.873518 0.87569 0.876994 0.877428 0.876994 0.87569 0.873518 0.870476 0.866566 0.861791 0.856192 0.849775 0.842541 0.83449 0.825622 0.815936 0.805433 0.794113 0.781976 0.769022 0.755259 0.740794 0.725663 0.709864 0.693397 0.676262 0.65846 0.639991 0.620854 0.601049 0.580577 0.559443 0.537802 0.515724 0.49321 0.470258 0.44687 0.423044 0.398782 0.374083 0.348947 0.323374 0.297366 0.271093 0.244668 0.218091 0.191362 0.164481 0.137448 0.110262 0.082925 0.0554354 0.0277938 0 0 0.0270968 0.0540454 0.0808457 0.107498 0.134002 0.160357 0.186564 0.212623 0.238534 0.264297 0.289911 0.315267 0.340199 0.364706 0.388786 0.41244 0.435669 0.458472 0.480849 0.502799 0.524324 0.545424 0.566029 0.585989 0.605298 0.623956 0.641964 0.65932 0.676026 0.692081 0.707485 0.722239 0.736341 0.749761 0.762391 0.774225 0.785263 0.795503 0.804947 0.813593 0.821443 0.828497 0.834753 0.840213 0.844868 0.848681 0.851646 0.853765 0.855036 0.855459 0.855036 0.853765 0.851646 0.848681 0.844868 0.840213 0.834753 0.828497 0.821443 0.813593 0.804947 0.795503 0.785263 0.774225 0.762391 0.749761 0.736341 0.722239 0.707485 0.692081 0.676026 0.65932 0.641964 0.623956 0.605298 0.585989 0.566029 0.545424 0.524324 0.502799 0.480849 0.458472 0.435669 0.41244 0.388786 0.364706 0.340199 0.315267 0.289911 0.264297 0.238534 0.212623 0.186564 0.160357 0.134002 0.107498 0.0808457 0.0540454 0.0270968 0 0 0.0264256 0.0527067 0.0788432 0.104835 0.130683 0.156385 0.181944 0.207357 0.232626 0.257751 0.282731 0.30746 0.331775 0.355674 0.379159 0.402228 0.424881 0.44712 0.468943 0.490351 0.511344 0.531921 0.552017 0.571483 0.590315 0.608512 0.626075 0.643002 0.659295 0.674954 0.689978 0.704367 0.718121 0.731209 0.743528 0.75507 0.765834 0.775822 0.785033 0.793466 0.801122 0.808002 0.814104 0.819429 0.823969 0.827688 0.83058 0.832646 0.833886 0.834299 0.833886 0.832646 0.83058 0.827688 0.823969 0.819429 0.814104 0.808002 0.801122 0.793466 0.785033 0.775822 0.765834 0.75507 0.743528 0.731209 0.718121 0.704367 0.689978 0.674954 0.659295 0.643002 0.626075 0.608512 0.590315 0.571483 0.552017 0.531921 0.511344 0.490351 0.468943 0.44712 0.424881 0.402228 0.379159 0.355674 0.331775 0.30746 0.282731 0.257751 0.232626 0.207357 0.181944 0.156385 0.130683 0.104835 0.0788432 0.0527067 0.0264256 0 0 0.0257801 0.0514192 0.0769174 0.102274 0.127491 0.152566 0.1775 0.202293 0.226945 0.251456 0.275826 0.299951 0.323672 0.346989 0.3699 0.392406 0.414507 0.436203 0.457494 0.478379 0.49886 0.518935 0.538541 0.557533 0.575906 0.593659 0.610794 0.627309 0.643205 0.658482 0.673139 0.687178 0.700597 0.713367 0.725386 0.736647 0.747149 0.756894 0.76588 0.774108 0.781578 0.78829 0.794243 0.799439 0.803869 0.807497 0.810319 0.812335 0.813544 0.813947 0.813544 0.812335 0.810319 0.807497 0.803869 0.799439 0.794243 0.78829 0.781578 0.774108 0.76588 0.756894 0.747149 0.736647 0.725386 0.713367 0.700597 0.687178 0.673139 0.658482 0.643205 0.627309 0.610794 0.593659 0.575906 0.557533 0.538541 0.518935 0.49886 0.478379 0.457494 0.436203 0.414507 0.392406 0.3699 0.346989 0.323672 0.299951 0.275826 0.251456 0.226945 0.202293 0.1775 0.152566 0.127491 0.102274 0.0769174 0.0514192 0.0257801 0 0 0.0251604 0.0501831 0.0750683 0.0998159 0.124426 0.148898 0.173233 0.19743 0.22149 0.245412 0.269196 0.292742 0.315893 0.338649 0.36101 0.382975 0.404545 0.42572 0.4465 0.466884 0.486873 0.506467 0.525602 0.544138 0.56207 0.579397 0.59612 0.612239 0.627754 0.642665 0.656971 0.670673 0.683771 0.696234 0.707965 0.718956 0.729207 0.738717 0.747488 0.755519 0.76281 0.769361 0.775172 0.780243 0.784567 0.788109 0.790863 0.79283 0.794011 0.794404 0.794011 0.79283 0.790863 0.788109 0.784567 0.780243 0.775172 0.769361 0.76281 0.755519 0.747488 0.738717 0.729207 0.718956 0.707965 0.696234 0.683771 0.670673 0.656971 0.642665 0.627754 0.612239 0.59612 0.579397 0.56207 0.544138 0.525602 0.506467 0.486873 0.466884 0.4465 0.42572 0.404545 0.382975 0.36101 0.338649 0.315893 0.292742 0.269196 0.245412 0.22149 0.19743 0.173233 0.148898 0.124426 0.0998159 0.0750683 0.0501831 0.0251604 0 0 0.0245663 0.0489983 0.0732959 0.0974593 0.121488 0.145383 0.169143 0.192769 0.216261 0.239619 0.262842 0.285831 0.308436 0.330655 0.352488 0.373936 0.394997 0.415672 0.435962 0.455865 0.475383 0.494515 0.513199 0.531298 0.548807 0.565726 0.582055 0.597794 0.612943 0.627503 0.641472 0.654851 0.66764 0.67981 0.691265 0.701997 0.712007 0.721294 0.729858 0.7377 0.744819 0.751216 0.75689 0.761842 0.766064 0.769522 0.772212 0.774133 0.775286 0.77567 0.775286 0.774133 0.772212 0.769522 0.766064 0.761842 0.75689 0.751216 0.744819 0.7377 0.729858 0.721294 0.712007 0.701997 0.691265 0.67981 0.66764 0.654851 0.641472 0.627503 0.612943 0.597794 0.582055 0.565726 0.548807 0.531298 0.513199 0.494515 0.475383 0.455865 0.435962 0.415672 0.394997 0.373936 0.352488 0.330655 0.308436 0.285831 0.262842 0.239619 0.216261 0.192769 0.169143 0.145383 0.121488 0.0974593 0.0732959 0.0489983 0.0245663 0 0 0.023998 0.0478647 0.0716003 0.0952047 0.118678 0.14202 0.165231 0.18831 0.211259 0.234076 0.256762 0.27922 0.301302 0.323007 0.344336 0.365287 0.385861 0.406059 0.425879 0.445323 0.46439 0.483079 0.501332 0.519013 0.536117 0.552646 0.568598 0.583973 0.598773 0.612996 0.626643 0.639713 0.652207 0.664096 0.675287 0.685771 0.69555 0.704622 0.712989 0.72065 0.727605 0.733854 0.739398 0.744235 0.74836 0.751738 0.754366 0.756243 0.757369 0.757744 0.757369 0.756243 0.754366 0.751738 0.74836 0.744235 0.739398 0.733854 0.727605 0.72065 0.712989 0.704622 0.69555 0.685771 0.675287 0.664096 0.652207 0.639713 0.626643 0.612996 0.598773 0.583973 0.568598 0.552646 0.536117 0.519013 0.501332 0.483079 0.46439 0.445323 0.425879 0.406059 0.385861 0.365287 0.344336 0.323007 0.301302 0.27922 0.256762 0.234076 0.211259 0.18831 0.165231 0.14202 0.118678 0.0952047 0.0716003 0.0478647 0.023998 0 0 0.0234554 0.0467825 0.0699814 0.0930521 0.115995 0.138809 0.161495 0.184053 0.206482 0.228784 0.250957 0.272907 0.29449 0.315705 0.336552 0.35703 0.377139 0.39688 0.416253 0.435257 0.453893 0.472161 0.490001 0.507283 0.524001 0.540156 0.555748 0.570777 0.585242 0.599144 0.612483 0.625258 0.637471 0.649091 0.660029 0.670277 0.679835 0.688703 0.696881 0.70437 0.711168 0.717276 0.722694 0.727423 0.731455 0.734757 0.737325 0.73916 0.74026 0.740627 0.74026 0.73916 0.737325 0.734757 0.731455 0.727423 0.722694 0.717276 0.711168 0.70437 0.696881 0.688703 0.679835 0.670277 0.660029 0.649091 0.637471 0.625258 0.612483 0.599144 0.585242 0.570777 0.555748 0.540156 0.524001 0.507283 0.490001 0.472161 0.453893 0.435257 0.416253 0.39688 0.377139 0.35703 0.336552 0.315705 0.29449 0.272907 0.250957 0.228784 0.206482 0.184053 0.161495 0.138809 0.115995 0.0930521 0.0699814 0.0467825 0.0234554 0 0 0.0229385 0.0457516 0.0684393 0.0910016 0.113439 0.13575 0.157936 0.179997 0.201933 0.223743 0.245427 0.266894 0.288002 0.308749 0.329136 0.349163 0.36883 0.388136 0.407082 0.425668 0.443894 0.461759 0.479206 0.496108 0.512458 0.528258 0.543506 0.558204 0.572351 0.585947 0.598993 0.611487 0.623431 0.634796 0.645493 0.655516 0.664864 0.673537 0.681535 0.688858 0.695507 0.701481 0.70678 0.711405 0.715348 0.718577 0.721089 0.722884 0.72396 0.724319 0.72396 0.722884 0.721089 0.718577 0.715348 0.711405 0.70678 0.701481 0.695507 0.688858 0.681535 0.673537 0.664864 0.655516 0.645493 0.634796 0.623431 0.611487 0.598993 0.585947 0.572351 0.558204 0.543506 0.528258 0.512458 0.496108 0.479206 0.461759 0.443894 0.425668 0.407082 0.388136 0.36883 0.349163 0.329136 0.308749 0.288002 0.266894 0.245427 0.223743 0.201933 0.179997 0.157936 0.13575 0.113439 0.0910016 0.0684393 0.0457516 0.0229385 0 0 0.0224456 0.0447685 0.0669687 0.0890463 0.111001 0.132833 0.154543 0.17613 0.197594 0.218935 0.240154 0.26116 0.281814 0.302116 0.322065 0.341662 0.360906 0.379798 0.398337 0.416524 0.434358 0.45184 0.468913 0.485451 0.50145 0.516911 0.531832 0.546215 0.560058 0.573362 0.586128 0.598354 0.610041 0.621163 0.631631 0.641438 0.650585 0.659072 0.666899 0.674065 0.680572 0.686417 0.691603 0.696128 0.699987 0.703147 0.705605 0.707361 0.708415 0.708766 0.708415 0.707361 0.705605 0.703147 0.699987 0.696128 0.691603 0.686417 0.680572 0.674065 0.666899 0.659072 0.650585 0.641438 0.631631 0.621163 0.610041 0.598354 0.586128 0.573362 0.560058 0.546215 0.531832 0.516911 0.50145 0.485451 0.468913 0.45184 0.434358 0.416524 0.398337 0.379798 0.360906 0.341662 0.322065 0.302116 0.281814 0.26116 0.240154 0.218935 0.197594 0.17613 0.154543 0.132833 0.111001 0.0890463 0.0669687 0.0447685 0.0224456 0 0 0.0219728 0.0438256 0.0655583 0.0871709 0.108663 0.130036 0.151288 0.17242 0.193433 0.214325 0.235097 0.25566 0.275879 0.295754 0.315283 0.334467 0.353306 0.3718 0.389949 0.407753 0.425212 0.442326 0.45904 0.47523 0.490893 0.506028 0.520635 0.534715 0.548267 0.561292 0.573789 0.585758 0.597199 0.608087 0.618335 0.627936 0.636891 0.645199 0.652861 0.659877 0.666247 0.67197 0.677046 0.681476 0.685254 0.688348 0.690754 0.692473 0.693504 0.693848 0.693504 0.692473 0.690754 0.688348 0.685254 0.681476 0.677046 0.67197 0.666247 0.659877 0.652861 0.645199 0.636891 0.627936 0.618335 0.608087 0.597199 0.585758 0.573789 0.561292 0.548267 0.534715 0.520635 0.506028 0.490893 0.47523 0.45904 0.442326 0.425212 0.407753 0.389949 0.3718 0.353306 0.334467 0.315283 0.295754 0.275879 0.25566 0.235097 0.214325 0.193433 0.17242 0.151288 0.130036 0.108663 0.0871709 0.0655583 0.0438256 0.0219728 0 0 0.0215201 0.0429227 0.0642076 0.085375 0.106425 0.127357 0.148171 0.168868 0.189448 0.209909 0.230253 0.250393 0.270196 0.289661 0.308788 0.327577 0.346028 0.364141 0.381917 0.399354 0.416454 0.433215 0.449585 0.465442 0.480782 0.495606 0.509912 0.523702 0.536976 0.549732 0.561972 0.573695 0.584901 0.595565 0.605601 0.615005 0.623776 0.631914 0.639418 0.64629 0.652528 0.658133 0.663105 0.667444 0.671144 0.674175 0.676531 0.678215 0.679225 0.679562 0.679225 0.678215 0.676531 0.674175 0.671144 0.667444 0.663105 0.658133 0.652528 0.64629 0.639418 0.631914 0.623776 0.615005 0.605601 0.595565 0.584901 0.573695 0.561972 0.549732 0.536976 0.523702 0.509912 0.495606 0.480782 0.465442 0.449585 0.433215 0.416454 0.399354 0.381917 0.364141 0.346028 0.327577 0.308788 0.289661 0.270196 0.250393 0.230253 0.209909 0.189448 0.168868 0.148171 0.127357 0.106425 0.085375 0.0642076 0.0429227 0.0215201 0 0 0.0210875 0.0420597 0.0629167 0.0836585 0.104285 0.124796 0.145192 0.165473 0.185639 0.205689 0.225624 0.245359 0.264764 0.283838 0.30258 0.320992 0.339072 0.356821 0.374239 0.391326 0.408082 0.424507 0.440548 0.456086 0.471118 0.485644 0.499664 0.513177 0.526183 0.538684 0.550678 0.562165 0.573146 0.583596 0.593431 0.602646 0.611241 0.619215 0.626569 0.633302 0.639416 0.644908 0.649781 0.654033 0.657658 0.660628 0.662937 0.664587 0.665577 0.665907 0.665577 0.664587 0.662937 0.660628 0.657658 0.654033 0.649781 0.644908 0.639416 0.633302 0.626569 0.619215 0.611241 0.602646 0.593431 0.583596 0.573146 0.562165 0.550678 0.538684 0.526183 0.513177 0.499664 0.485644 0.471118 0.456086 0.440548 0.424507 0.408082 0.391326 0.374239 0.356821 0.339072 0.320992 0.30258 0.283838 0.264764 0.245359 0.225624 0.205689 0.185639 0.165473 0.145192 0.124796 0.104285 0.0836585 0.0629167 0.0420597 0.0210875 0 0 0.0206748 0.0412366 0.0616855 0.0820214 0.102244 0.122354 0.142351 0.162235 0.182006 0.201664 0.22121 0.240558 0.259583 0.278284 0.29666 0.314711 0.332438 0.34984 0.366917 0.38367 0.400098 0.416202 0.431929 0.447163 0.461902 0.476143 0.489889 0.503138 0.51589 0.528146 0.539906 0.551169 0.561935 0.57218 0.581824 0.590859 0.599285 0.607104 0.614314 0.620916 0.62691 0.632295 0.637072 0.641241 0.644796 0.647707 0.649972 0.651589 0.65256 0.652883 0.65256 0.651589 0.649972 0.647707 0.644796 0.641241 0.637072 0.632295 0.62691 0.620916 0.614314 0.607104 0.599285 0.590859 0.581824 0.57218 0.561935 0.551169 0.539906 0.528146 0.51589 0.503138 0.489889 0.476143 0.461902 0.447163 0.431929 0.416202 0.400098 0.38367 0.366917 0.34984 0.332438 0.314711 0.29666 0.278284 0.259583 0.240558 0.22121 0.201664 0.182006 0.162235 0.142351 0.122354 0.102244 0.0820214 0.0616855 0.0412366 0.0206748 0 0 0.0202822 0.0404535 0.060514 0.0804638 0.100303 0.120031 0.139648 0.159154 0.17855 0.197835 0.217009 0.23599 0.254654 0.272999 0.291027 0.308735 0.326125 0.343197 0.35995 0.376385 0.392501 0.408299 0.423728 0.438673 0.453132 0.467104 0.480588 0.493586 0.506096 0.518119 0.529656 0.540705 0.551268 0.561319 0.570779 0.579643 0.587909 0.59558 0.602653 0.60913 0.61501 0.620293 0.62498 0.62907 0.632557 0.635413 0.637635 0.639222 0.640174 0.640491 0.640174 0.639222 0.637635 0.635413 0.632557 0.62907 0.62498 0.620293 0.61501 0.60913 0.602653 0.59558 0.587909 0.579643 0.570779 0.561319 0.551268 0.540705 0.529656 0.518119 0.506096 0.493586 0.480588 0.467104 0.453132 0.438673 0.423728 0.408299 0.392501 0.376385 0.35995 0.343197 0.326125 0.308735 0.291027 0.272999 0.254654 0.23599 0.217009 0.197835 0.17855 0.159154 0.139648 0.120031 0.100303 0.0804638 0.060514 0.0404535 0.0202822 0 0 0.0199096 0.0397103 0.0594023 0.0789855 0.09846 0.117826 0.137083 0.156231 0.17527 0.194201 0.213022 0.231655 0.249976 0.267985 0.28568 0.303064 0.320135 0.336893 0.353338 0.369471 0.385292 0.4008 0.415945 0.430616 0.444809 0.458524 0.471761 0.48452 0.496801 0.508604 0.519929 0.530775 0.541144 0.55101 0.560297 0.568998 0.577113 0.584643 0.591586 0.597944 0.603717 0.608903 0.613504 0.617518 0.620942 0.623746 0.625927 0.627484 0.628419 0.628731 0.628419 0.627484 0.625927 0.623746 0.620942 0.617518 0.613504 0.608903 0.603717 0.597944 0.591586 0.584643 0.577113 0.568998 0.560297 0.55101 0.541144 0.530775 0.519929 0.508604 0.496801 0.48452 0.471761 0.458524 0.444809 0.430616 0.415945 0.4008 0.385292 0.369471 0.353338 0.336893 0.320135 0.303064 0.28568 0.267985 0.249976 0.231655 0.213022 0.194201 0.17527 0.156231 0.137083 0.117826 0.09846 0.0789855 0.0594023 0.0397103 0.0199096 0 0 0.019557 0.0390071 0.0583503 0.0775868 0.0967163 0.115739 0.134655 0.153464 0.172166 0.190761 0.20925 0.227553 0.245549 0.263239 0.280622 0.297697 0.314466 0.330927 0.347082 0.362929 0.37847 0.393703 0.40858 0.422992 0.436934 0.450406 0.463409 0.475942 0.488005 0.499599 0.510724 0.521378 0.531564 0.541256 0.550378 0.558925 0.566897 0.574293 0.581114 0.587359 0.593029 0.598124 0.602643 0.606587 0.60995 0.612705 0.614847 0.616377 0.617295 0.617601 0.617295 0.616377 0.614847 0.612705 0.60995 0.606587 0.602643 0.598124 0.593029 0.587359 0.581114 0.574293 0.566897 0.558925 0.550378 0.541256 0.531564 0.521378 0.510724 0.499599 0.488005 0.475942 0.463409 0.450406 0.436934 0.422992 0.40858 0.393703 0.37847 0.362929 0.347082 0.330927 0.314466 0.297697 0.280622 0.263239 0.245549 0.227553 0.20925 0.190761 0.172166 0.153464 0.134655 0.115739 0.0967163 0.0775868 0.0583503 0.0390071 0.019557 0 0 0.0192244 0.0383438 0.0573581 0.0762674 0.0950717 0.113771 0.132365 0.150854 0.169239 0.187518 0.205692 0.223683 0.241374 0.258763 0.27585 0.292635 0.309119 0.325301 0.34118 0.356758 0.372035 0.387009 0.401633 0.4158 0.429505 0.442748 0.45553 0.46785 0.479709 0.491106 0.502041 0.512515 0.522527 0.532054 0.541022 0.549424 0.55726 0.564531 0.571236 0.577375 0.582949 0.587957 0.592399 0.596276 0.599582 0.60229 0.604396 0.6059 0.606802 0.607103 0.606802 0.6059 0.604396 0.60229 0.599582 0.596276 0.592399 0.587957 0.582949 0.577375 0.571236 0.564531 0.55726 0.549424 0.541022 0.532054 0.522527 0.512515 0.502041 0.491106 0.479709 0.46785 0.45553 0.442748 0.429505 0.4158 0.401633 0.387009 0.372035 0.356758 0.34118 0.325301 0.309119 0.292635 0.27585 0.258763 0.241374 0.223683 0.205692 0.187518 0.169239 0.150854 0.132365 0.113771 0.0950717 0.0762674 0.0573581 0.0383438 0.0192244 0 0 0.0189119 0.0377204 0.0564256 0.0750275 0.0935261 0.111921 0.130213 0.148402 0.166487 0.184469 0.202348 0.220047 0.23745 0.254556 0.271366 0.287878 0.304094 0.320012 0.335634 0.350959 0.365987 0.380718 0.395105 0.409041 0.422523 0.435552 0.448126 0.460246 0.471911 0.483123 0.493881 0.504184 0.514034 0.523406 0.532228 0.540494 0.548203 0.555355 0.561951 0.567991 0.573474 0.578401 0.582772 0.586585 0.589838 0.592501 0.594573 0.596053 0.596941 0.597237 0.596941 0.596053 0.594573 0.592501 0.589838 0.586585 0.582772 0.578401 0.573474 0.567991 0.561951 0.555355 0.548203 0.540494 0.532228 0.523406 0.514034 0.504184 0.493881 0.483123 0.471911 0.460246 0.448126 0.435552 0.422523 0.409041 0.395105 0.380718 0.365987 0.350959 0.335634 0.320012 0.304094 0.287878 0.271366 0.254556 0.23745 0.220047 0.202348 0.184469 0.166487 0.148402 0.130213 0.111921 0.0935261 0.0750275 0.0564256 0.0377204 0.0189119 0 0 0.0186193 0.0371369 0.0555528 0.073867 0.0920795 0.11019 0.128199 0.146107 0.163912 0.181616 0.199218 0.216643 0.233777 0.250619 0.267168 0.283425 0.29939 0.315063 0.330443 0.345531 0.360326 0.37483 0.388994 0.402715 0.415989 0.428815 0.441195 0.453128 0.464613 0.475652 0.486243 0.496387 0.506085 0.515312 0.523998 0.532135 0.539725 0.546767 0.553261 0.559208 0.564606 0.569457 0.57376 0.577515 0.580717 0.583339 0.585379 0.586836 0.58771 0.588001 0.58771 0.586836 0.585379 0.583339 0.580717 0.577515 0.57376 0.569457 0.564606 0.559208 0.553261 0.546767 0.539725 0.532135 0.523998 0.515312 0.506085 0.496