<?xml version="1.0"?> 
<VTKFile type="StructuredGrid" version="0.1"> 
<StructuredGrid WholeExtent="0 100 0 100 0 0"> 
<Piece Extent="0 100 0 100 0 0"> 
<PointData Scalars="u">
<DataArray type="Float32" Name="u" format="ascii" NumberOfComponents="1"> 
0 0 0 0 0 0 0 0 0 0 0 0 0 0 0 0 0 0 0 0 0 0 0 0 0 0 0 0 0 0 0 0 0 0 0 0 0 0 0 0 0 0 0 0 0 0 0 0 0 0 0 0 0 0 0 0 0 0 0 0 0 0 0 0 0 0 0 0 0 0 0 0 0 0 0 0 0 0 0 0 0 0 0 0 0 0 0 0 0 0 0 0 0 0 0 0 0 0 0 0 0 3.61962e-05 2.19343e-05 8.72677e-06 -3.42652e-06 -1.45255e-05 -2.45703e-05 -3.35608e-05 -4.1497e-05 -4.83789e-05 -5.42066e-05 -5.898e-05 -6.26991e-05 -6.56616e-05 -6.83183e-05 -7.0674e-05 -7.27287e-05 -7.44823e-05 -7.59348e-05 -7.70864e-05 -7.79369e-05 -7.84863e-05 -7.87347e-05 -7.86821e-05 -7.84094e-05 -7.80966e-05 -7.77503e-05 -7.73705e-05 -7.69573e-05 -7.65106e-05 -7.60305e-05 -7.55168e-05 -7.49697e-05 -7.43891e-05 -7.37751e-05 -7.31427e-05 -7.25409e-05 -7.19736e-05 -7.14408e-05 -7.09424e-05 -7.04784e-05 -7.00489e-05 -6.96539e-05 -6.92933e-05 -6.89671e-05 -6.86754e-05 -6.842e-05 -6.82101e-05 -6.80468e-05 -6.79301e-05 -6.78602e-05 -6.78368e-05 -6.78602e-05 -6.79301e-05 -6.80468e-05 -6.82101e-05 -6.842e-05 -6.86754e-05 -6.89671e-05 -6.92933e-05 -6.96539e-05 -7.00489e-05 -7.04784e-05 -7.09424e-05 -7.14408e-05 -7.19736e-05 -7.25409e-05 -7.31427e-05 -7.37751e-05 -7.43891e-05 -7.49697e-05 -7.55168e-05 -7.60305e-05 -7.65106e-05 -7.69573e-05 -7.73705e-05 -7.77503e-05 -7.80966e-05 -7.84094e-05 -7.86821e-05 -7.87347e-05 -7.84863e-05 -7.79369e-05 -7.70864e-05 -7.59348e-05 -7.44823e-05 -7.27287e-05 -7.0674e-05 -6.83183e-05 -6.56616e-05 -6.26991e-05 -5.898e-05 -5.42066e-05 -4.83789e-05 -4.1497e-05 -3.35608e-05 -2.45703e-05 -1.45255e-05 -3.42652e-06 8.72677e-06 2.19343e-05 3.61962e-05 0.000144785 8.77373e-05 3.49071e-05 -1.37061e-05 -5.81022e-05 -9.82812e-05 -0.000134243 -0.000165988 -0.000193516 -0.000216826 -0.00023592 -0.000250797 -0.000262646 -0.000273273 -0.000282696 -0.000290915 -0.000297929 -0.000303739 -0.000308346 -0.000311748 -0.000313945 -0.000314939 -0.000314728 -0.000313638 -0.000312386 -0.000311001 -0.000309482 -0.000307829 -0.000306042 -0.000304122 -0.000302067 -0.000299879 -0.000297557 -0.0002951 -0.000292571 -0.000290164 -0.000287895 -0.000285763 -0.00028377 -0.000281914 -0.000280196 -0.000278615 -0.000277173 -0.000275868 -0.000274702 -0.00027368 -0.00027284 -0.000272187 -0.000271721 -0.000271441 -0.000271347 -0.000271441 -0.000271721 -0.000272187 -0.00027284 -0.00027368 -0.000274702 -0.000275868 -0.000277173 -0.000278615 -0.000280196 -0.000281914 -0.00028377 -0.000285763 -0.000287895 -0.000290164 -0.000292571 -0.0002951 -0.000297557 -0.000299879 -0.000302067 -0.000304122 -0.000306042 -0.000307829 -0.000309482 -0.000311001 -0.000312386 -0.000313638 -0.000314728 -0.000314939 -0.000313945 -0.000311748 -0.000308346 -0.000303739 -0.000297929 -0.000290915 -0.000282696 -0.000273273 -0.000262646 -0.000250797 -0.00023592 -0.000216826 -0.000193516 -0.000165988 -0.000134243 -9.82812e-05 -5.81022e-05 -1.37061e-05 3.49071e-05 8.77373e-05 0.000144785 0.000325766 0.000197409 7.8541e-05 -3.08387e-05 -0.00013073 -0.000221133 -0.000302047 -0.000373473 -0.00043541 -0.000487859 -0.00053082 -0.000564292 -0.000590954 -0.000614865 -0.000636066 -0.000654558 -0.00067034 -0.000683414 -0.000693777 -0.000701432 -0.000706377 -0.000708613 -0.000708139 -0.000705684 -0.000702869 -0.000699753 -0.000696335 -0.000692616 -0.000688596 -0.000684274 -0.000679651 -0.000674727 -0.000669502 -0.000663976 -0.000658284 -0.000652868 -0.000647763 -0.000642967 -0.000638481 -0.000634306 -0.00063044 -0.000626885 -0.000623639 -0.000620704 -0.000618078 -0.00061578 -0.00061389 -0.000612421 -0.000611371 -0.000610741 -0.000610532 -0.000610741 -0.000611371 -0.000612421 -0.00061389 -0.00061578 -0.000618078 -0.000620704 -0.000623639 -0.000626885 -0.00063044 -0.000634306 -0.000638481 -0.000642967 -0.000647763 -0.000652868 -0.000658284 -0.000663976 -0.000669502 -0.000674727 -0.000679651 -0.000684274 -0.000688596 -0.000692616 -0.000696335 -0.000699753 -0.000702869 -0.000705684 -0.000708139 -0.000708613 -0.000706377 -0.000701432 -0.000693777 -0.000683414 -0.00067034 -0.000654558 -0.000636066 -0.000614865 -0.000590954 -0.000564292 -0.00053082 -0.000487859 -0.00043541 -0.000373473 -0.000302047 -0.000221133 -0.00013073 -3.08387e-05 7.8541e-05 0.000197409 0.000325766 0.000579139 0.000350949 0.000139628 -5.48243e-05 -0.000232409 -0.000393125 -0.000536972 -0.000663952 -0.000774063 -0.000867306 -0.00094368 -0.00100319 -0.00105058 -0.00109309 -0.00113078 -0.00116366 -0.00119172 -0.00121496 -0.00123338 -0.00124699 -0.00125578 -0.00125976 -0.00125891 -0.00125455 -0.00124955 -0.001244 -0.00123793 -0.00123132 -0.00122417 -0.00121649 -0.00120827 -0.00119952 -0.00119023 -0.0011804 -0.00117028 -0.00116065 -0.00115158 -0.00114305 -0.00113508 -0.00112765 -0.00112078 -0.00111446 -0.00110869 -0.00110347 -0.00109881 -0.00109472 -0.00109136 -0.00108875 -0.00108688 -0.00108576 -0.00108539 -0.00108576 -0.00108688 -0.00108875 -0.00109136 -0.00109472 -0.00109881 -0.00110347 -0.00110869 -0.00111446 -0.00112078 -0.00112765 -0.00113508 -0.00114305 -0.00115158 -0.00116065 -0.00117028 -0.0011804 -0.00119023 -0.00119952 -0.00120827 -0.00121649 -0.00122417 -0.00123132 -0.00123793 -0.001244 -0.00124955 -0.00125455 -0.00125891 -0.00125976 -0.00125578 -0.00124699 -0.00123338 -0.00121496 -0.00119172 -0.00116366 -0.00113078 -0.00109309 -0.00105058 -0.00100319 -0.00094368 -0.000867306 -0.000774063 -0.000663952 -0.000536972 -0.000393125 -0.000232409 -5.48243e-05 0.000139628 0.000350949 0.000579139 0.000904904 0.000548358 0.000218169 -8.5663e-05 -0.000363139 -0.000614257 -0.000839019 -0.00103742 -0.00120947 -0.00135516 -0.0014745 -0.00156748 -0.00164154 -0.00170796 -0.00176685 -0.00181822 -0.00186206 -0.00189837 -0.00192716 -0.00194842 -0.00196216 -0.00196837 -0.00196705 -0.00196023 -0.00195241 -0.00194376 -0.00193426 -0.00192393 -0.00191277 -0.00190076 -0.00188792 -0.00187424 -0.00185973 -0.00184438 -0.00182857 -0.00181352 -0.00179934 -0.00178602 -0.00177356 -0.00176196 -0.00175122 -0.00174135 -0.00173233 -0.00172418 -0.00171688 -0.0017105 -0.00170525 -0.00170117 -0.00169825 -0.0016965 -0.00169592 -0.0016965 -0.00169825 -0.00170117 -0.00170525 -0.0017105 -0.00171688 -0.00172418 -0.00173233 -0.00174135 -0.00175122 -0.00176196 -0.00177356 -0.00178602 -0.00179934 -0.00181352 -0.00182857 -0.00184438 -0.00185973 -0.00187424 -0.00188792 -0.00190076 -0.00191277 -0.00192393 -0.00193426 -0.00194376 -0.00195241 -0.00196023 -0.00196705 -0.00196837 -0.00196216 -0.00194842 -0.00192716 -0.00189837 -0.00186206 -0.00181822 -0.00176685 -0.00170796 -0.00164154 -0.00156748 -0.0014745 -0.00135516 -0.00120947 -0.00103742 -0.000839019 -0.000614257 -0.000363139 -8.5663e-05 0.000218169 0.000548358 0.000904904 0.00130306 0.000789636 0.000314164 -0.000123355 -0.00052292 -0.000884531 -0.00120819 -0.00149389 -0.00174164 -0.00195144 -0.00212328 -0.00225717 -0.00236382 -0.00245946 -0.00254426 -0.00261823 -0.00268136 -0.00273365 -0.00277511 -0.00280573 -0.00282551 -0.00283445 -0.00283256 -0.00282274 -0.00281148 -0.00279901 -0.00278534 -0.00277046 -0.00275438 -0.0027371 -0.00271861 -0.00269891 -0.00267801 -0.0026559 -0.00263314 -0.00261147 -0.00259105 -0.00257187 -0.00255393 -0.00253722 -0.00252176 -0.00250754 -0.00249456 -0.00248282 -0.00247231 -0.00246312 -0.00245556 -0.00244968 -0.00244549 -0.00244297 -0.00244213 -0.00244297 -0.00244549 -0.00244968 -0.00245556 -0.00246312 -0.00247231 -0.00248282 -0.00249456 -0.00250754 -0.00252176 -0.00253722 -0.00255393 -0.00257187 -0.00259105 -0.00261147 -0.00263314 -0.0026559 -0.00267801 -0.00269891 -0.00271861 -0.0027371 -0.00275438 -0.00277046 -0.00278534 -0.00279901 -0.00281148 -0.00282274 -0.00283256 -0.00283445 -0.00282551 -0.00280573 -0.00277511 -0.00273365 -0.00268136 -0.00261823 -0.00254426 -0.00245946 -0.00236382 -0.00225717 -0.00212328 -0.00195144 -0.00174164 -0.00149389 -0.00120819 -0.000884531 -0.00052292 -0.000123355 0.000314164 0.000789636 0.00130306 0.00177361 0.00107478 0.000427612 -0.0001679 -0.000711752 -0.00120394 -0.00164448 -0.00203335 -0.00237057 -0.00265612 -0.00289002 -0.00307226 -0.00321742 -0.0033476 -0.00346303 -0.0035637 -0.00364963 -0.00372081 -0.00377723 -0.00381891 -0.00384583 -0.003858 -0.00385542 -0.00384206 -0.00382673 -0.00380976 -0.00379116 -0.00377091 -0.00374902 -0.00372549 -0.00370032 -0.00367352 -0.00364507 -0.00361498 -0.00358399 -0.00355451 -0.00352671 -0.0035006 -0.00347618 -0.00345344 -0.0034324 -0.00341304 -0.00339537 -0.00337939 -0.00336509 -0.00335258 -0.00334229 -0.00333429 -0.00332858 -0.00332515 -0.003324 -0.00332515 -0.00332858 -0.00333429 -0.00334229 -0.00335258 -0.00336509 -0.00337939 -0.00339537 -0.00341304 -0.0034324 -0.00345344 -0.00347618 -0.0035006 -0.00352671 -0.00355451 -0.00358399 -0.00361498 -0.00364507 -0.00367352 -0.00370032 -0.00372549 -0.00374902 -0.00377091 -0.00379116 -0.00380976 -0.00382673 -0.00384206 -0.00385542 -0.003858 -0.00384583 -0.00381891 -0.00377723 -0.00372081 -0.00364963 -0.0035637 -0.00346303 -0.0033476 -0.00321742 -0.00307226 -0.00289002 -0.00265612 -0.00237057 -0.00203335 -0.00164448 -0.00120394 -0.000711752 -0.0001679 0.000427612 0.00107478 0.00177361 0.00231656 0.0014038 0.000558513 -0.000219297 -0.000929635 -0.0015725 -0.00214789 -0.00265581 -0.00309625 -0.00346922 -0.00377472 -0.00401274 -0.00420234 -0.00437237 -0.00452314 -0.00465463 -0.00476687 -0.00485983 -0.00493353 -0.00498796 -0.00502313 -0.00503902 -0.00503566 -0.0050182 -0.00499818 -0.00497602 -0.00495171 -0.00492527 -0.00489668 -0.00486595 -0.00483308 -0.00479806 -0.00476091 -0.00472161 -0.00468113 -0.00464262 -0.00460631 -0.00457221 -0.00454031 -0.00451062 -0.00448313 -0.00445785 -0.00443477 -0.00441389 -0.00439522 -0.00437888 -0.00436544 -0.00435499 -0.00434753 -0.00434305 -0.00434156 -0.00434305 -0.00434753 -0.00435499 -0.00436544 -0.00437888 -0.00439522 -0.00441389 -0.00443477 -0.00445785 -0.00448313 -0.00451062 -0.00454031 -0.00457221 -0.00460631 -0.00464262 -0.00468113 -0.00472161 -0.00476091 -0.00479806 -0.00483308 -0.00486595 -0.00489668 -0.00492527 -0.00495171 -0.00497602 -0.00499818 -0.0050182 -0.00503566 -0.00503902 -0.00502313 -0.00498796 -0.00493353 -0.00485983 -0.00476687 -0.00465463 -0.00452314 -0.00437237 -0.00420234 -0.00401274 -0.00377472 -0.00346922 -0.00309625 -0.00265581 -0.00214789 -0.0015725 -0.000929635 -0.000219297 0.000558513 0.0014038 0.00231656 0.00293189 0.00177668 0.000706869 -0.000277548 -0.00117657 -0.00199019 -0.00271842 -0.00336126 -0.00391869 -0.00439073 -0.00477738 -0.00507863 -0.00531859 -0.00553378 -0.00572459 -0.00589102 -0.00603306 -0.00615072 -0.006244 -0.00631289 -0.00635739 -0.00637751 -0.00637325 -0.00635116 -0.00632582 -0.00629777 -0.00626701 -0.00623354 -0.00619736 -0.00615847 -0.00611686 -0.00607255 -0.00602552 -0.00597578 -0.00592456 -0.00587582 -0.00582986 -0.0057867 -0.00574633 -0.00570875 -0.00567396 -0.00564196 -0.00561275 -0.00558633 -0.00556271 -0.00554202 -0.00552501 -0.00551179 -0.00550234 -0.00549667 -0.00549478 -0.00549667 -0.00550234 -0.00551179 -0.00552501 -0.00554202 -0.00556271 -0.00558633 -0.00561275 -0.00564196 -0.00567396 -0.00570875 -0.00574633 -0.0057867 -0.00582986 -0.00587582 -0.00592456 -0.00597578 -0.00602552 -0.00607255 -0.00611686 -0.00615847 -0.00619736 -0.00623354 -0.00626701 -0.00629777 -0.00632582 -0.00635116 -0.00637325 -0.00637751 -0.00635739 -0.00631289 -0.006244 -0.00615072 -0.00603306 -0.00589102 -0.00572459 -0.00553378 -0.00531859 -0.00507863 -0.00477738 -0.00439073 -0.00391869 -0.00336126 -0.00271842 -0.00199019 -0.00117657 -0.000277548 0.000706869 0.00177668 0.00293189 0.00361962 0.00219343 0.000872677 -0.000342652 -0.00145255 -0.00245703 -0.00335608 -0.0041497 -0.00483789 -0.00542066 -0.005898 -0.00626991 -0.00656616 -0.00683183 -0.0070674 -0.00727287 -0.00744823 -0.00759348 -0.00770864 -0.00779369 -0.00784863 -0.00787347 -0.00786821 -0.00784094 -0.00780966 -0.00777503 -0.00773705 -0.00769573 -0.00765106 -0.00760305 -0.00755168 -0.00749697 -0.00743891 -0.00737751 -0.00731427 -0.00725409 -0.00719736 -0.00714408 -0.00709424 -0.00704784 -0.00700489 -0.00696539 -0.00692933 -0.00689671 -0.00686754 -0.006842 -0.00682101 -0.00680468 -0.00679301 -0.00678602 -0.00678368 -0.00678602 -0.00679301 -0.00680468 -0.00682101 -0.006842 -0.00686754 -0.00689671 -0.00692933 -0.00696539 -0.00700489 -0.00704784 -0.00709424 -0.00714408 -0.00719736 -0.00725409 -0.00731427 -0.00737751 -0.00743891 -0.00749697 -0.00755168 -0.00760305 -0.00765106 -0.00769573 -0.00773705 -0.00777503 -0.00780966 -0.00784094 -0.00786821 -0.00787347 -0.00784863 -0.00779369 -0.00770864 -0.00759348 -0.00744823 -0.00727287 -0.0070674 -0.00683183 -0.00656616 -0.00626991 -0.005898 -0.00542066 -0.00483789 -0.0041497 -0.00335608 -0.00245703 -0.00145255 -0.000342652 0.000872677 0.00219343 0.00361962 0.00437974 0.00265405 0.00105594 -0.000414609 -0.00175759 -0.00297301 -0.00406085 -0.00502114 -0.00585385 -0.006559 -0.00713658 -0.00758659 -0.00794505 -0.00826651 -0.00855155 -0.00880017 -0.00901235 -0.00918812 -0.00932745 -0.00943036 -0.00949685 -0.0095269 -0.00952054 -0.00948754 -0.00944968 -0.00940778 -0.00936183 -0.00931183 -0.00925778 -0.00919969 -0.00913754 -0.00907134 -0.00900109 -0.00892679 -0.00885026 -0.00877745 -0.00870881 -0.00864434 -0.00858403 -0.00852789 -0.00847592 -0.00842812 -0.00838448 -0.00834502 -0.00830972 -0.00827882 -0.00825342 -0.00823366 -0.00821955 -0.00821108 -0.00820826 -0.00821108 -0.00821955 -0.00823366 -0.00825342 -0.00827882 -0.00830972 -0.00834502 -0.00838448 -0.00842812 -0.00847592 -0.00852789 -0.00858403 -0.00864434 -0.00870881 -0.00877745 -0.00885026 -0.00892679 -0.00900109 -0.00907134 -0.00913754 -0.00919969 -0.00925778 -0.00931183 -0.00936183 -0.00940778 -0.00944968 -0.00948754 -0.00952054 -0.0095269 -0.00949685 -0.00943036 -0.00932745 -0.00918812 -0.00901235 -0.00880017 -0.00855155 -0.00826651 -0.00794505 -0.00758659 -0.00713658 -0.006559 -0.00585385 -0.00502114 -0.00406085 -0.00297301 -0.00175759 -0.000414609 0.00105594 0.00265405 0.00437974 0.0050288 0.00299801 0.00111744 -0.000612906 -0.00219303 -0.00362294 -0.00490263 -0.00603209 -0.00701134 -0.00784036 -0.00851917 -0.00904775 -0.00946852 -0.00984575 -0.0101801 -0.0104716 -0.0107202 -0.0109259 -0.0110888 -0.0112088 -0.0112859 -0.0113201 -0.0113115 -0.0112715 -0.0112258 -0.0111754 -0.0111203 -0.0110604 -0.0109958 -0.0109264 -0.0108523 -0.0107735 -0.0106899 -0.0106016 -0.0105107 -0.0104242 -0.0103427 -0.0102661 -0.0101945 -0.0101279 -0.0100662 -0.0100094 -0.00995763 -0.00991079 -0.00986891 -0.00983225 -0.00980212 -0.00977868 -0.00976194 -0.00975189 -0.00974854 -0.00975189 -0.00976194 -0.00977868 -0.00980212 -0.00983225 -0.00986891 -0.00991079 -0.00995763 -0.0100094 -0.0100662 -0.0101279 -0.0101945 -0.0102661 -0.0103427 -0.0104242 -0.0105107 -0.0106016 -0.0106899 -0.0107735 -0.0108523 -0.0109264 -0.0109958 -0.0110604 -0.0111203 -0.0111754 -0.0112258 -0.0112715 -0.0113115 -0.0113201 -0.0112859 -0.0112088 -0.0110888 -0.0109259 -0.0107202 -0.0104716 -0.0101801 -0.00984575 -0.00946852 -0.00904775 -0.00851917 -0.00784036 -0.00701134 -0.00603209 -0.00490263 -0.00362294 -0.00219303 -0.000612906 0.00111744 0.00299801 0.0050288 0.00528878 0.002982 0.000846193 -0.00111864 -0.0029125 -0.00453539 -0.00598731 -0.00726825 -0.00837822 -0.00931721 -0.0100852 -0.0106823 -0.0111567 -0.0115815 -0.0119577 -0.0122851 -0.0125638 -0.0127937 -0.012975 -0.0131074 -0.0131912 -0.0132262 -0.0132125 -0.0131632 -0.0131075 -0.0130466 -0.0129803 -0.0129088 -0.012832 -0.0127499 -0.0126625 -0.0125698 -0.0124718 -0.0123686 -0.0122625 -0.0121616 -0.0120665 -0.0119772 -0.0118936 -0.0118159 -0.011744 -0.0116779 -0.0116175 -0.011563 -0.0115143 -0.0114716 -0.0114366 -0.0114093 -0.0113899 -0.0113782 -0.0113743 -0.0113782 -0.0113899 -0.0114093 -0.0114366 -0.0114716 -0.0115143 -0.011563 -0.0116175 -0.0116779 -0.011744 -0.0118159 -0.0118936 -0.0119772 -0.0120665 -0.0121616 -0.0122625 -0.0123686 -0.0124718 -0.0125698 -0.0126625 -0.0127499 -0.012832 -0.0129088 -0.0129803 -0.0130466 -0.0131075 -0.0131632 -0.0132125 -0.0132262 -0.0131912 -0.0131074 -0.012975 -0.0127937 -0.0125638 -0.0122851 -0.0119577 -0.0115815 -0.0111567 -0.0106823 -0.0100852 -0.00931721 -0.00837822 -0.00726825 -0.00598731 -0.00453539 -0.0029125 -0.00111864 0.000846193 0.002982 0.00528878 0.0051568 0.00260351 0.000240015 -0.00193368 -0.00391758 -0.00571168 -0.00731598 -0.00873048 -0.00995519 -0.0109901 -0.0118352 -0.0124905 -0.0130097 -0.013474 -0.0138844 -0.0142407 -0.0145431 -0.0147914 -0.0149858 -0.0151262 -0.0152126 -0.015245 -0.0152234 -0.0151624 -0.0150945 -0.015021 -0.0149417 -0.0148568 -0.0147661 -0.0146697 -0.0145677 -0.0144599 -0.0143465 -0.0142273 -0.0141053 -0.0139892 -0.0138798 -0.0137771 -0.013681 -0.0135917 -0.0135091 -0.0134332 -0.0133639 -0.0133013 -0.0132455 -0.0131966 -0.0131565 -0.0131253 -0.013103 -0.0130896 -0.0130852 -0.0130896 -0.013103 -0.0131253 -0.0131565 -0.0131966 -0.0132455 -0.0133013 -0.0133639 -0.0134332 -0.0135091 -0.0135917 -0.013681 -0.0137771 -0.0138798 -0.0139892 -0.0141053 -0.0142273 -0.0143465 -0.0144599 -0.0145677 -0.0146697 -0.0147661 -0.0148568 -0.0149417 -0.015021 -0.0150945 -0.0151624 -0.0152234 -0.015245 -0.0152126 -0.0151262 -0.0149858 -0.0147914 -0.0145431 -0.0142407 -0.0138844 -0.013474 -0.0130097 -0.0124905 -0.0118352 -0.0109901 -0.00995519 -0.00873048 -0.00731598 -0.00571168 -0.00391758 -0.00193368 0.000240015 0.00260351 0.0051568 0.00463287 0.00186254 -0.00070109 -0.00305802 -0.00520826 -0.0071518 -0.00888864 -0.0104188 -0.0117422 -0.012859 -0.0137691 -0.0144724 -0.0150276 -0.0155232 -0.0159601 -0.0163384 -0.016658 -0.016919 -0.0171213 -0.017265 -0.01735 -0.0173764 -0.0173441 -0.0172691 -0.0171869 -0.0170986 -0.0170044 -0.0169043 -0.0167981 -0.016686 -0.016568 -0.0164439 -0.0163139 -0.0161779 -0.016039 -0.015907 -0.0157826 -0.0156658 -0.0155567 -0.0154553 -0.0153614 -0.0152753 -0.0151967 -0.0151258 -0.0150625 -0.0150073 -0.0149619 -0.0149266 -0.0149014 -0.0148862 -0.0148812 -0.0148862 -0.0149014 -0.0149266 -0.0149619 -0.0150073 -0.0150625 -0.0151258 -0.0151967 -0.0152753 -0.0153614 -0.0154553 -0.0155567 -0.0156658 -0.0157826 -0.015907 -0.016039 -0.0161779 -0.0163139 -0.0164439 -0.016568 -0.016686 -0.0167981 -0.0169043 -0.0170044 -0.0170986 -0.0171869 -0.0172691 -0.0173441 -0.0173764 -0.01735 -0.017265 -0.0171213 -0.016919 -0.016658 -0.0163384 -0.0159601 -0.0155232 -0.0150276 -0.0144724 -0.0137691 -0.012859 -0.0117422 -0.0104188 -0.00888864 -0.0071518 -0.00520826 -0.00305802 -0.00070109 0.00186254 0.00463287 0.00371697 0.000759091 -0.00197712 -0.00449167 -0.00678455 -0.00885576 -0.0107053 -0.0123332 -0.0137394 -0.0149239 -0.0158868 -0.016628 -0.0172103 -0.017729 -0.0181849 -0.0185781 -0.0189086 -0.0191764 -0.0193815 -0.0195239 -0.0196035 -0.0196205 -0.0195747 -0.0194833 -0.0193845 -0.0192795 -0.0191685 -0.0190513 -0.0189281 -0.0187987 -0.0186633 -0.0185217 -0.0183741 -0.0182204 -0.0180638 -0.0179151 -0.017775 -0.0176435 -0.0175207 -0.0174066 -0.017301 -0.0172042 -0.017116 -0.0170364 -0.0169655 -0.0169036 -0.0168528 -0.0168132 -0.016785 -0.016768 -0.0167624 -0.016768 -0.016785 -0.0168132 -0.0168528 -0.0169036 -0.0169655 -0.0170364 -0.017116 -0.0172042 -0.017301 -0.0174066 -0.0175207 -0.0176435 -0.017775 -0.0179151 -0.0180638 -0.0182204 -0.0183741 -0.0185217 -0.0186633 -0.0187987 -0.0189281 -0.0190513 -0.0191685 -0.0192795 -0.0193845 -0.0194833 -0.0195747 -0.0196205 -0.0196035 -0.0195239 -0.0193815 -0.0191764 -0.0189086 -0.0185781 -0.0181849 -0.017729 -0.0172103 -0.016628 -0.0158868 -0.0149239 -0.0137394 -0.0123332 -0.0107053 -0.00885576 -0.00678455 -0.00449167 -0.00197712 0.000759091 0.00371697 0.00240913 -0.000706835 -0.00358809 -0.00623462 -0.00864645 -0.0108236 -0.012766 -0.0144737 -0.0159466 -0.0171849 -0.0181884 -0.0189573 -0.019558 -0.0200915 -0.0205588 -0.02096 -0.0212949 -0.0215637 -0.0217663 -0.0219028 -0.0219731 -0.0219772 -0.0219151 -0.021805 -0.0216874 -0.0215637 -0.0214338 -0.0212979 -0.0211559 -0.0210078 -0.0208537 -0.0206934 -0.020527 -0.0203546 -0.0201795 -0.0200133 -0.0198569 -0.0197101 -0.019573 -0.0194456 -0.0193279 -0.0192199 -0.0191217 -0.0190331 -0.0189542 -0.0188855 -0.0188291 -0.0187852 -0.0187538 -0.018735 -0.0187287 -0.018735 -0.0187538 -0.0187852 -0.0188291 -0.0188855 -0.0189542 -0.0190331 -0.0191217 -0.0192199 -0.0193279 -0.0194456 -0.019573 -0.0197101 -0.0198569 -0.0200133 -0.0201795 -0.0203546 -0.020527 -0.0206934 -0.0208537 -0.0210078 -0.0211559 -0.0212979 -0.0214338 -0.0215637 -0.0216874 -0.021805 -0.0219151 -0.0219772 -0.0219731 -0.0219028 -0.0217663 -0.0215637 -0.0212949 -0.02096 -0.0205588 -0.0200915 -0.019558 -0.0189573 -0.0181884 -0.0171849 -0.0159466 -0.0144737 -0.012766 -0.0108236 -0.00864645 -0.00623462 -0.00358809 -0.000706835 0.00240913 0.000709326 -0.00253524 -0.00553398 -0.00828688 -0.010794 -0.0130552 -0.0150706 -0.0168402 -0.018364 -0.0196419 -0.020674 -0.0214602 -0.0220705 -0.0226107 -0.0230818 -0.0234839 -0.0238169 -0.0240809 -0.0242759 -0.0244018 -0.0244587 -0.0244465 -0.0243654 -0.0242342 -0.0240956 -0.023951 -0.0238005 -0.0236441 -0.0234817 -0.0233133 -0.0231391 -0.0229589 -0.0227727 -0.0225806 -0.0223863 -0.0222019 -0.0220283 -0.0218655 -0.0217135 -0.0215724 -0.021442 -0.0213225 -0.0212138 -0.0211159 -0.0210289 -0.0209531 -0.0208908 -0.0208424 -0.0208078 -0.0207871 -0.0207802 -0.0207871 -0.0208078 -0.0208424 -0.0208908 -0.0209531 -0.0210289 -0.0211159 -0.0212138 -0.0213225 -0.021442 -0.0215724 -0.0217135 -0.0218655 -0.0220283 -0.0222019 -0.0223863 -0.0225806 -0.0227727 -0.0229589 -0.0231391 -0.0233133 -0.0234817 -0.0236441 -0.0238005 -0.023951 -0.0240956 -0.0242342 -0.0243654 -0.0244465 -0.0244587 -0.0244018 -0.0242759 -0.0240809 -0.0238169 -0.0234839 -0.0230818 -0.0226107 -0.0220705 -0.0214602 -0.020674 -0.0196419 -0.018364 -0.0168402 -0.0150706 -0.0130552 -0.010794 -0.00828688 -0.00553398 -0.00253524 0.000709326 -0.00138243 -0.00472612 -0.00781479 -0.0106484 -0.0132271 -0.0155507 -0.0176193 -0.0194328 -0.0209914 -0.0222949 -0.0233434 -0.0241369 -0.0247479 -0.0252865 -0.0257538 -0.0261498 -0.0264745 -0.0267279 -0.02691 -0.0270208 -0.0270604 -0.0270286 -0.0269255 -0.0267709 -0.0266091 -0.0264416 -0.0262685 -0.0260898 -0.0259053 -0.0257153 -0.0255195 -0.0253182 -0.0251111 -0.0248985 -0.0246841 -0.0244807 -0.0242892 -0.0241098 -0.0239424 -0.0237869 -0.0236434 -0.0235119 -0.0233924 -0.0232849 -0.0231893 -0.0231063 -0.023038 -0.022985 -0.0229471 -0.0229243 -0.0229168 -0.0229243 -0.0229471 -0.022985 -0.023038 -0.0231063 -0.0231893 -0.0232849 -0.0233924 -0.0235119 -0.0236434 -0.0237869 -0.0239424 -0.0241098 -0.0242892 -0.0244807 -0.0246841 -0.0248985 -0.0251111 -0.0253182 -0.0255195 -0.0257153 -0.0259053 -0.0260898 -0.0262685 -0.0264416 -0.0266091 -0.0267709 -0.0269255 -0.0270286 -0.0270604 -0.0270208 -0.02691 -0.0267279 -0.0264745 -0.0261498 -0.0257538 -0.0252865 -0.0247479 -0.0241369 -0.0233434 -0.0222949 -0.0209914 -0.0194328 -0.0176193 -0.0155507 -0.0132271 -0.0106484 -0.00781479 -0.00472612 -0.00138243 -0.00386614 -0.00727949 -0.0104305 -0.0133193 -0.0159458 -0.01831 -0.0204119 -0.0222515 -0.0238289 -0.0251439 -0.0261967 -0.0269872 -0.0275902 -0.0281191 -0.028575 -0.0289579 -0.0292679 -0.0295049 -0.0296689 -0.02976 -0.0297781 -0.0297232 -0.0295954 -0.0294151 -0.0292279 -0.0290355 -0.0288379 -0.028635 -0.0284269 -0.0282136 -0.0279951 -0.0277713 -0.0275423 -0.0273081 -0.0270728 -0.0268497 -0.0266397 -0.026443 -0.0262595 -0.0260892 -0.025932 -0.0257881 -0.0256574 -0.02554 -0.0254357 -0.0253451 -0.0252707 -0.0252129 -0.0251716 -0.0251468 -0.0251385 -0.0251468 -0.0251716 -0.0252129 -0.0252707 -0.0253451 -0.0254357 -0.02554 -0.0256574 -0.0257881 -0.025932 -0.0260892 -0.0262595 -0.026443 -0.0266397 -0.0268497 -0.0270728 -0.0273081 -0.0275423 -0.0277713 -0.0279951 -0.0282136 -0.0284269 -0.028635 -0.0288379 -0.0290355 -0.0292279 -0.0294151 -0.0295954 -0.0297232 -0.0297781 -0.02976 -0.0296689 -0.0295049 -0.0292679 -0.0289579 -0.028575 -0.0281191 -0.0275902 -0.0269872 -0.0261967 -0.0251439 -0.0238289 -0.0222515 -0.0204119 -0.01831 -0.0159458 -0.0133193 -0.0104305 -0.00727949 -0.00386614 -0.00674181 -0.0101953 -0.0133812 -0.0162995 -0.0189501 -0.0213331 -0.0234485 -0.0252963 -0.0268765 -0.028189 -0.0292339 -0.0300112 -0.0305973 -0.0311083 -0.0315452 -0.031908 -0.0321968 -0.0324116 -0.0325524 -0.0326191 -0.0326118 -0.0325305 -0.0323752 -0.0321668 -0.031952 -0.0317326 -0.0315085 -0.0312798 -0.0310464 -0.0308083 -0.0305656 -0.0303183 -0.0300663 -0.0298096 -0.0295526 -0.0293089 -0.0290798 -0.0288651 -0.0286649 -0.0284792 -0.0283079 -0.0281512 -0.0280089 -0.0278811 -0.0277678 -0.0276696 -0.0275889 -0.0275261 -0.0274813 -0.0274544 -0.0274454 -0.0274544 -0.0274813 -0.0275261 -0.0275889 -0.0276696 -0.0277678 -0.0278811 -0.0280089 -0.0281512 -0.0283079 -0.0284792 -0.0286649 -0.0288651 -0.0290798 -0.0293089 -0.0295526 -0.0298096 -0.0300663 -0.0303183 -0.0305656 -0.0308083 -0.0310464 -0.0312798 -0.0315085 -0.0317326 -0.031952 -0.0321668 -0.0323752 -0.0325305 -0.0326118 -0.0326191 -0.0325524 -0.0324116 -0.0321968 -0.031908 -0.0315452 -0.0311083 -0.0305973 -0.0300112 -0.0292339 -0.028189 -0.0268765 -0.0252963 -0.0234485 -0.0213331 -0.0189501 -0.0162995 -0.0133812 -0.0101953 -0.00674181 -0.0100094 -0.0134736 -0.0166668 -0.019589 -0.0222401 -0.0246201 -0.0267292 -0.0285672 -0.0301342 -0.0314301 -0.032455 -0.0332089 -0.0337694 -0.0342542 -0.0346644 -0.0350002 -0.0352615 -0.0354483 -0.0355606 -0.0355984 -0.0355617 -0.0354505 -0.0352648 -0.0350259 -0.0347814 -0.0345329 -0.0342805 -0.0340241 -0.0337638 -0.0334995 -0.0332313 -0.0329591 -0.032683 -0.0324029 -0.0321233 -0.0318584 -0.0316093 -0.031376 -0.0311586 -0.0309569 -0.0307711 -0.0306011 -0.0304469 -0.0303085 -0.0301859 -0.0300797 -0.0299925 -0.0299247 -0.0298762 -0.0298472 -0.0298375 -0.0298472 -0.0298762 -0.0299247 -0.0299925 -0.0300797 -0.0301859 -0.0303085 -0.0304469 -0.0306011 -0.0307711 -0.0309569 -0.0311586 -0.031376 -0.0316093 -0.0318584 -0.0321233 -0.0324029 -0.032683 -0.0329591 -0.0332313 -0.0334995 -0.0337638 -0.0340241 -0.0342805 -0.0345329 -0.0347814 -0.0350259 -0.0352648 -0.0354505 -0.0355617 -0.0355984 -0.0355606 -0.0354483 -0.0352615 -0.0350002 -0.0346644 -0.0342542 -0.0337694 -0.0332089 -0.032455 -0.0314301 -0.0301342 -0.0285672 -0.0267292 -0.0246201 -0.0222401 -0.019589 -0.0166668 -0.0134736 -0.0100094 -0.0136807 -0.0171243 -0.0202955 -0.0231942 -0.0258204 -0.0281742 -0.0302555 -0.0320643 -0.0336007 -0.0348646 -0.0358561 -0.0365751 -0.0371 -0.0375493 -0.0379243 -0.038225 -0.0384514 -0.0386035 -0.0386813 -0.0386848 -0.038614 -0.0384689 -0.0382495 -0.0379774 -0.0377004 -0.0374204 -0.0371373 -0.0368512 -0.036562 -0.0362698 -0.0359745 -0.0356761 -0.0353747 -0.0350703 -0.0347672 -0.0344803 -0.0342106 -0.0339581 -0.0337227 -0.0335046 -0.0333037 -0.03312 -0.0329535 -0.0328042 -0.032672 -0.0325577 -0.0324639 -0.0323909 -0.0323387 -0.0323075 -0.032297 -0.0323075 -0.0323387 -0.0323909 -0.0324639 -0.0325577 -0.032672 -0.0328042 -0.0329535 -0.03312 -0.0333037 -0.0335046 -0.0337227 -0.0339581 -0.0342106 -0.0344803 -0.0347672 -0.0350703 -0.0353747 -0.0356761 -0.0359745 -0.0362698 -0.036562 -0.0368512 -0.0371373 -0.0374204 -0.0377004 -0.0379774 -0.0382495 -0.0384689 -0.038614 -0.0386848 -0.0386813 -0.0386035 -0.0384514 -0.038225 -0.0379243 -0.0375493 -0.0371 -0.0365751 -0.0358561 -0.0348646 -0.0336007 -0.0320643 -0.0302555 -0.0281742 -0.0258204 -0.0231942 -0.0202955 -0.0171243 -0.0136807 -0.0177817 -0.0211694 -0.0242853 -0.0271294 -0.0297017 -0.0320023 -0.0340311 -0.0357881 -0.0372734 -0.0384868 -0.0394285 -0.0400985 -0.040575 -0.0409771 -0.0413058 -0.0415612 -0.0417433 -0.0418522 -0.0418877 -0.0418499 -0.0417388 -0.0415544 -0.0412967 -0.0409872 -0.0406742 -0.0403592 -0.0400424 -0.0397237 -0.0394032 -0.0390807 -0.0387564 -0.0384302 -0.0381021 -0.0377721 -0.0374448 -0.037135 -0.0368439 -0.0365715 -0.0363177 -0.0360826 -0.0358661 -0.0356683 -0.0354892 -0.0353287 -0.0351869 -0.0350643 -0.0349637 -0.0348855 -0.0348296 -0.0347961 -0.0347849 -0.0347961 -0.0348296 -0.0348855 -0.0349637 -0.0350643 -0.0351869 -0.0353287 -0.0354892 -0.0356683 -0.0358661 -0.0360826 -0.0363177 -0.0365715 -0.0368439 -0.037135 -0.0374448 -0.0377721 -0.0381021 -0.0384302 -0.0387564 -0.0390807 -0.0394032 -0.0397237 -0.0400424 -0.0403592 -0.0406742 -0.0409872 -0.0412967 -0.0415544 -0.0417388 -0.0418499 -0.0418877 -0.0418522 -0.0417433 -0.0415612 -0.0413058 -0.0409771 -0.040575 -0.0400985 -0.0394285 -0.0384868 -0.0372734 -0.0357881 -0.0340311 -0.0320023 -0.0297017 -0.0271294 -0.0242853 -0.0211694 -0.0177817 -0.0223134 -0.0256096 -0.0286368 -0.0313951 -0.0338845 -0.0361048 -0.0380562 -0.0397386 -0.041152 -0.0422965 -0.043172 -0.0437785 -0.0441941 -0.0445369 -0.0448083 -0.0450081 -0.0451365 -0.0451933 -0.0451786 -0.0450925 -0.0449348 -0.0447056 -0.0444049 -0.0440543 -0.0437014 -0.0433482 -0.0429945 -0.0426404 -0.0422858 -0.0419309 -0.0415756 -0.0412198 -0.0408636 -0.040507 -0.0401545 -0.0398211 -0.0395079 -0.0392149 -0.038942 -0.0386894 -0.0384569 -0.0382447 -0.0380526 -0.0378807 -0.037729 -0.0375981 -0.0374906 -0.0374071 -0.0373474 -0.0373116 -0.0372997 -0.0373116 -0.0373474 -0.0374071 -0.0374906 -0.0375981 -0.037729 -0.0378807 -0.0380526 -0.0382447 -0.0384569 -0.0386894 -0.038942 -0.0392149 -0.0395079 -0.0398211 -0.0401545 -0.040507 -0.0408636 -0.0412198 -0.0415756 -0.0419309 -0.0422858 -0.0426404 -0.0429945 -0.0433482 -0.0437014 -0.0440543 -0.0444049 -0.0447056 -0.0449348 -0.0450925 -0.0451786 -0.0451933 -0.0451365 -0.0450081 -0.0448083 -0.0445369 -0.0441941 -0.0437785 -0.043172 -0.0422965 -0.041152 -0.0397386 -0.0380562 -0.0361048 -0.0338845 -0.0313951 -0.0286368 -0.0256096 -0.0223134 -0.0272757 -0.030445 -0.0333502 -0.0359914 -0.0383686 -0.0404817 -0.0423307 -0.0439157 -0.0452367 -0.0462936 -0.0470864 -0.0476152 -0.0479571 -0.0482289 -0.0484317 -0.0485657 -0.0486307 -0.0486269 -0.0485542 -0.0484126 -0.0482021 -0.0479227 -0.0475744 -0.0471785 -0.0467821 -0.0463871 -0.0459934 -0.0456011 -0.0452101 -0.0448204 -0.044432 -0.044045 -0.0436593 -0.0432749 -0.0428964 -0.0425386 -0.0422025 -0.0418882 -0.0415957 -0.0413251 -0.0410761 -0.040849 -0.0406437 -0.0404601 -0.0402984 -0.040159 -0.040044