<?xml version="1.0"?> 
<VTKFile type="StructuredGrid" version="0.1"> 
<StructuredGrid WholeExtent="0 100 0 100 0 0"> 
<Piece Extent="0 100 0 100 0 0"> 
<PointData Scalars="u">
<DataArray type="Float32" Name="u" format="ascii" NumberOfComponents="1"> 
0 0 0 0 0 0 0 0 0 0 0 0 0 0 0 0 0 0 0 0 0 0 0 0 0 0 0 0 0 0 0 0 0 0 0 0 0 0 0 0 0 0 0 0 0 0 0 0 0 0 0 0 0 0 0 0 0 0 0 0 0 0 0 0 0 0 0 0 0 0 0 0 0 0 0 0 0 0 0 0 0 0 0 0 0 0 0 0 0 0 0 0 0 0 0 0 0 0 0 0 0 0 5.06186e-09 2.02474e-08 4.55567e-08 8.09897e-08 1.26546e-07 1.82227e-07 2.48031e-07 3.23959e-07 4.10011e-07 5.06186e-07 6.12485e-07 7.30904e-07 8.64468e-07 1.01321e-06 1.17713e-06 1.35622e-06 1.55049e-06 1.75993e-06 1.98456e-06 2.22435e-06 2.47933e-06 2.74948e-06 3.03495e-06 3.33605e-06 3.6528e-06 3.98519e-06 4.33323e-06 4.69691e-06 5.07623e-06 5.4712e-06 5.88181e-06 6.30807e-06 6.74997e-06 7.2076e-06 7.68119e-06 8.17076e-06 8.67632e-06 9.19787e-06 9.7354e-06 1.02889e-05 1.08584e-05 1.14439e-05 1.20454e-05 1.26629e-05 1.32966e-05 1.3948e-05 1.46172e-05 1.53042e-05 1.6009e-05 1.67317e-05 1.74722e-05 1.82305e-05 1.90066e-05 1.98006e-05 2.06124e-05 2.14425e-05 2.22945e-05 2.31693e-05 2.40668e-05 2.4987e-05 2.59299e-05 2.68956e-05 2.78839e-05 2.8895e-05 2.99288e-05 3.09853e-05 3.20651e-05 3.31751e-05 3.43175e-05 3.54923e-05 3.66995e-05 3.79391e-05 3.92111e-05 4.05155e-05 4.18522e-05 4.32214e-05 4.46229e-05 4.60572e-05 4.75334e-05 4.90555e-05 5.06236e-05 5.22377e-05 5.38978e-05 5.56039e-05 5.73559e-05 5.91539e-05 6.0998e-05 6.2888e-05 6.48239e-05 6.68017e-05 6.88187e-05 7.08748e-05 7.297e-05 7.51045e-05 7.72781e-05 7.94908e-05 8.17427e-05 8.40338e-05 8.6364e-05 8.87334e-05 0 2.02474e-08 8.09897e-08 1.82227e-07 3.23959e-07 5.06186e-07 7.28908e-07 9.92124e-07 1.29584e-06 1.64004e-06 2.02474e-06 2.44994e-06 2.92362e-06 3.45787e-06 4.05283e-06 4.7085e-06 5.42487e-06 6.20195e-06 7.03973e-06 7.93822e-06 8.89742e-06 9.91732e-06 1.09979e-05 1.21398e-05 1.33442e-05 1.46112e-05 1.59408e-05 1.73329e-05 1.87876e-05 2.03049e-05 2.18848e-05 2.35273e-05 2.52323e-05 2.69999e-05 2.88304e-05 3.07247e-05 3.2683e-05 3.47053e-05 3.67915e-05 3.89416e-05 4.11557e-05 4.34337e-05 4.57757e-05 4.81816e-05 5.06514e-05 5.31863e-05 5.57918e-05 5.84686e-05 6.12167e-05 6.40361e-05 6.69267e-05 6.98887e-05 7.29219e-05 7.60265e-05 7.92023e-05 8.24494e-05 8.57698e-05 8.9178e-05 9.26771e-05 9.62671e-05 9.99479e-05 0.00010372 0.000107582 0.000111536 0.00011558 0.000119715 0.000123941 0.00012826 0.000132701 0.00013727 0.000141969 0.000146798 0.000151757 0.000156844 0.000162062 0.000167409 0.000172886 0.000178492 0.000184229 0.000190133 0.000196222 0.000202494 0.000208951 0.000215591 0.000222415 0.000229424 0.000236616 0.000243992 0.000251552 0.000259296 0.000267207 0.000275275 0.000283499 0.00029188 0.000300418 0.000309112 0.000317963 0.000326971 0.000336135 0.000345456 0.000354933 0 4.55567e-08 1.82227e-07 4.10011e-07 7.28908e-07 1.13892e-06 1.64004e-06 2.23228e-06 2.91563e-06 3.6901e-06 4.55567e-06 5.51236e-06 6.57813e-06 7.78021e-06 9.11887e-06 1.05941e-05 1.2206e-05 1.39544e-05 1.58394e-05 1.7861e-05 2.00192e-05 2.2314e-05 2.47453e-05 2.73146e-05 3.00245e-05 3.28752e-05 3.58667e-05 3.8999e-05 4.22722e-05 4.56861e-05 4.92408e-05 5.29363e-05 5.67726e-05 6.07498e-05 6.48684e-05 6.91307e-05 7.35368e-05 7.80869e-05 8.27808e-05 8.76186e-05 9.26003e-05 9.77258e-05 0.000102995 0.000108409 0.000113966 0.000119669 0.000125532 0.000131554 0.000137738 0.000144081 0.000150585 0.00015725 0.000164074 0.00017106 0.000178205 0.000185511 0.000192982 0.000200651 0.000208523 0.000216601 0.000224883 0.000233369 0.00024206 0.000250955 0.000260055 0.000269359 0.000278868 0.000288586 0.000298576 0.000308858 0.000319431 0.000330296 0.000341452 0.0003529 0.000364639 0.00037667 0.000388993 0.000401607 0.000414515 0.0004278 0.0004415 0.000455613 0.000470139 0.00048508 0.000500435 0.000516203 0.000532386 0.000548982 0.000565992 0.000583415 0.000601215 0.000619368 0.000637873 0.00065673 0.00067594 0.000695503 0.000715417 0.000735684 0.000756304 0.000777276 0.0007986 0 8.09897e-08 3.23959e-07 7.28908e-07 1.29584e-06 2.02474e-06 2.91563e-06 3.9685e-06 5.18334e-06 6.56017e-06 8.09897e-06 9.79976e-06 1.16945e-05 1.38315e-05 1.62113e-05 1.8834e-05 2.16995e-05 2.48078e-05 2.81589e-05 3.17529e-05 3.55897e-05 3.96693e-05 4.39917e-05 4.85592e-05 5.33768e-05 5.84448e-05 6.3763e-05 6.93316e-05 7.51505e-05 8.12197e-05 8.75392e-05 9.4109e-05 0.000100929 0.000108 0.000115322 0.000122899 0.000130732 0.000138821 0.000147166 0.000155766 0.000164623 0.000173735 0.000183103 0.000192726 0.000202606 0.000212745 0.000223167 0.000233874 0.000244867 0.000256144 0.000267707 0.000279555 0.000291688 0.000304106 0.000316809 0.000329798 0.000343079 0.000356712 0.000370708 0.000385068 0.000399792 0.000414879 0.000430329 0.000446143 0.00046232 0.000478861 0.000495765 0.000513042 0.000530802 0.000549081 0.000567878 0.000587193 0.000607026 0.000627378 0.000648248 0.000669636 0.000691542 0.000713967 0.000736916 0.000760534 0.000784888 0.000809978 0.000835803 0.000862365 0.000889662 0.000917695 0.000946463 0.000975967 0.00100621 0.00103718 0.00106883 0.0011011 0.001134 0.00116752 0.00120167 0.00123645 0.00127185 0.00130788 0.00134454 0.00138182 0.00141973 0 1.26546e-07 5.06186e-07 1.13892e-06 2.02474e-06 3.16366e-06 4.55567e-06 6.20078e-06 8.09897e-06 1.02503e-05 1.26546e-05 1.53121e-05 1.82726e-05 2.16117e-05 2.53302e-05 2.94281e-05 3.39055e-05 3.87622e-05 4.39983e-05 4.96139e-05 5.56089e-05 6.19832e-05 6.8737e-05 7.58738e-05 8.34013e-05 9.132e-05 9.96298e-05 0.000108331 0.000117423 0.000126906 0.00013678 0.000147045 0.000157702 0.000168749 0.00018019 0.00019203 0.000204269 0.000216908 0.000229947 0.000243385 0.000257223 0.000271461 0.000286098 0.000301135 0.000316571 0.000332415 0.000348699 0.000365429 0.000382604 0.000400225 0.000418292 0.000436804 0.000455762 0.000475165 0.000495014 0.000515309 0.000536061 0.000557363 0.000579232 0.000601669 0.000624674 0.000648248 0.000672389 0.000697098 0.000722375 0.00074822 0.000774633 0.000801628 0.000829378 0.000857938 0.000887309 0.000917489 0.000948478 0.000980278 0.00101289 0.00104631 0.00108054 0.00111557 0.00115143 0.00118833 0.00122639 0.00126559 0.00130594 0.00134745 0.0013901 0.0014339 0.00147885 0.00152495 0.0015722 0.0016206 0.00167004 0.00172047 0.00177187 0.00182425 0.00187761 0.00193195 0.00198727 0.00204357 0.00210084 0.0021591 0.00221833 0 1.82227e-07 7.28908e-07 1.64004e-06 2.91563e-06 4.55567e-06 6.56017e-06 8.92912e-06 1.16625e-05 1.47604e-05 1.82227e-05 2.20495e-05 2.63125e-05 3.11208e-05 3.64755e-05 4.23765e-05 4.88239e-05 5.58176e-05 6.33576e-05 7.1444e-05 8.00768e-05 8.92559e-05 9.89813e-05 0.000109258 0.000120098 0.000131501 0.000143467 0.000155996 0.000169089 0.000182744 0.000196963 0.000211745 0.000227091 0.000242999 0.000259473 0.000276523 0.000294147 0.000312348 0.000331123 0.000350474 0.000370401 0.000390903 0.000411981 0.000433634 0.000455863 0.000478677 0.000502126 0.000526217 0.00055095 0.000576324 0.00060234 0.000628998 0.000656297 0.000684238 0.000712821 0.000742045 0.000771928 0.000802602 0.000834094 0.000866404 0.000899531 0.000933477 0.00096824 0.00100382 0.00104022 0.00107744 0.00111547 0.00115434 0.0011943 0.00123543 0.00127772 0.00132118 0.00136581 0.0014116 0.00145856 0.00150668 0.00155597 0.00160643 0.00165806 0.0017112 0.001766 0.00182245 0.00188056 0.00194032 0.00200174 0.00206481 0.00212954 0.00219593 0.00226397 0.00233366 0.00240486 0.00247747 0.00255149 0.00262692 0.00270376 0.00278201 0.00286167 0.00294274 0.00302522 0.0031091 0.0031944 0 2.48031e-07 9.92124e-07 2.23228e-06 3.9685e-06 6.20078e-06 8.92912e-06 1.21535e-05 1.5874e-05 2.00905e-05 2.48031e-05 3.00118e-05 3.58143e-05 4.23589e-05 4.96472e-05 5.76791e-05 6.64547e-05 7.59739e-05 8.62367e-05 9.72432e-05 0.000108993 0.000121487 0.000134725 0.000148713 0.000163467 0.000178987 0.000195274 0.000212328 0.000230148 0.000248735 0.000268089 0.000288209 0.000309095 0.000330749 0.000353172 0.000376378 0.000400367 0.00042514 0.000450696 0.000477035 0.000504157 0.000532063 0.000560752 0.000590224 0.00062048 0.000651533 0.00068345 0.00071624 0.000749904 0.000784442 0.000819852 0.000856136 0.000893294 0.000931324 0.000970228 0.00101001 0.00105068 0.00109243 0.00113529 0.00117927 0.00122436 0.00127057 0.00131788 0.00136631 0.00141586 0.00146651 0.00151828 0.00157119 0.00162558 0.00168156 0.00173912 0.00179828 0.00185902 0.00192134 0.00198526 0.00205076 0.00211785 0.00218652 0.0022568 0.00232914 0.00240372 0.00248056 0.00255965 0.00264099 0.00272459 0.00281044 0.00289854 0.0029889 0.00308151 0.00317637 0.00327328 0.00337211 0.00347286 0.00357553 0.00368012 0.00378662 0.00389505 0.00400539 0.00411765 0.00423184 0.00434794 0 3.23959e-07 1.29584e-06 2.91563e-06 5.18334e-06 8.09897e-06 1.16625e-05 1.5874e-05 2.07334e-05 2.62407e-05 3.23959e-05 3.9199e-05 4.67778e-05 5.53259e-05 6.48453e-05 7.5336e-05 8.6798e-05 9.92312e-05 0.000112636 0.000127012 0.000142359 0.000158677 0.000175967 0.000194237 0.000213507 0.000233779 0.000255052 0.000277326 0.000300602 0.000324879 0.000350157 0.000376436 0.000403717 0.000431998 0.000461286 0.000491596 0.000522929 0.000555285 0.000588664 0.000623066 0.000658491 0.000694939 0.00073241 0.000770905 0.000810422 0.000850981 0.000892669 0.000935498 0.000979467 0.00102458 0.00107083 0.00111822 0.00116675 0.00121642 0.00126724 0.00131919 0.00137232 0.00142685 0.00148283 0.00154027 0.00159917 0.00165951 0.00172132 0.00178457 0.00184928 0.00191544 0.00198306 0.00205217 0.00212321 0.00219632 0.00227151 0.00234877 0.0024281 0.00250951 0.00259299 0.00267854 0.00276617 0.00285587 0.00294766 0.00304214 0.00313955 0.00323991 0.00334321 0.00344946 0.00355865 0.00367078 0.00378585 0.00390387 0.00402483 0.00414873 0.00427531 0.00440439 0.00453599 0.00467008 0.00480669 0.0049458 0.00508741 0.00523153 0.00537816 0.0055273 0.00567894 0 4.10011e-07 1.64004e-06 3.6901e-06 6.56017e-06 1.02503e-05 1.47604e-05 2.00905e-05 2.62407e-05 3.32109e-05 4.10011e-05 4.96113e-05 5.92032e-05 7.00219e-05 8.20699e-05 9.53471e-05 0.000109854 0.00012559 0.000142555 0.000160749 0.000180173 0.000200826 0.000222708 0.000245831 0.00027022 0.000295877 0.0003228 0.000350991 0.000380449 0.000411175 0.000443167 0.000476427 0.000510954 0.000546748 0.000583815 0.000622176 0.000661832 0.000702782 0.000745027 0.000788568 0.000833403 0.000879532 0.000926957 0.000975677 0.00102569 0.00107702 0.00112978 0.00118399 0.00123964 0.00129673 0.00135527 0.00141525 0.00147667 0.00153954 0.00160385 0.0016696 0.00173684 0.00180585 0.00187671 0.00194941 0.00202395 0.00210032 0.00217854 0.0022586 0.0023405 0.00242423 0.00250981 0.00259727 0.00268719 0.00277972 0.00287488 0.00297266 0.00307307 0.0031761 0.00328175 0.00339003 0.00350093 0.00361446 0.00373064 0.0038502 0.0039735 0.00410051 0.00423126 0.00436572 0.00450391 0.00464583 0.00479147 0.00494084 0.00509393 0.00525074 0.00541094 0.00557431 0.00574086 0.00591057 0.00608346 0.00625952 0.00643876 0.00662116 0.00680674 0.00699548 0.0071874 0 5.06186e-07 2.02474e-06 4.55567e-06 8.09897e-06 1.26546e-05 1.82227e-05 2.48031e-05 3.23959e-05 4.10011e-05 5.06186e-05 6.12485e-05 7.30904e-05 8.64468e-05 0.000101321 0.000117713 0.000135622 0.000155049 0.000175993 0.000198456 0.000222435 0.000247933 0.000274948 0.000303495 0.000333605 0.00036528 0.000398519 0.000433323 0.000469691 0.000507623 0.00054712 0.000588181 0.000630807 0.000674997 0.00072076 0.000768119 0.000817076 0.000867632 0.000919787 0.00097354 0.00102889 0.00108584 0.00114439 0.00120454 0.00126629 0.00132966 0.0013948 0.00146172 0.00153042 0.0016009 0.00167317 0.00174722 0.00182305 0.00190066 0.00198006 0.00206124 0.00214425 0.00222945 0.00231693 0.00240668 0.0024987 0.00259299 0.00268956 0.00278839 0.0028895 0.00299288 0.00309853 0.00320651 0.00331751 0.00343175 0.00354923 0.00366995 0.00379391 0.00392111 0.00405155 0.00418522 0.00432214 0.00446229 0.00460572 0.00475334 0.00490555 0.00506236 0.00522377 0.00538978 0.00556039 0.00573559 0.00591539 0.0060998 0.0062888 0.00648239 0.00668017 0.00688187 0.00708748 0.007297 0.00751045 0.00772781 0.00794908 0.00817427 0.00840338 0.0086364 0.00887334 0 6.12485e-07 2.44994e-06 5.51236e-06 9.79976e-06 1.53121e-05 2.20495e-05 3.00118e-05 3.9199e-05 4.96113e-05 6.12485e-05 7.41107e-05 8.84394e-05 0.000104601 0.000122598 0.000142432 0.000164102 0.000187609 0.000212952 0.000240131 0.000269147 0.000299999 0.000332687 0.000367229 0.000403662 0.000441989 0.000482208 0.00052432 0.000568326 0.000614224 0.000662015 0.000711699 0.000763277 0.000816747 0.000872119 0.000929423 0.000988662 0.00104983 0.00111294 0.00117798 0.00124496 0.00131387 0.00138471 0.00145749 0.0015322 0.00160889 0.0016877 0.00176868 0.0018518 0.00193709 0.00202453 0.00211413 0.00220589 0.0022998 0.00239587 0.0024941 0.00259454 0.00269764 0.00280348 0.00291208 0.00302342 0.00313752 0.00325436 0.00337395 0.0034963 0.00362139 0.00374922 0.00387988 0.00401419 0.00415242 0.00429457 0.00444064 0.00459063 0.00474454 0.00490237 0.00506412 0.00522979 0.00539938 0.00557292 0.00575154 0.00593572 0.00612546 0.00632076 0.00652163 0.00672807 0.00694007 0.00715763 0.00738075 0.00760944 0.00784369 0.00808301 0.00832706 0.00857585 0.00882938 0.00908764 0.00935065 0.00961839 0.00989087 0.0101681 0.01045 0.0107367 0 7.30904e-07 2.92362e-06 6.57813e-06 1.16945e-05 1.82726e-05 2.63125e-05 3.58143e-05 4.67778e-05 5.92032e-05 7.30904e-05 8.84394e-05 0.000105535 0.00012481 0.000146267 0.000169908 0.000195732 0.000223739 0.000253929 0.000286302 0.000320858 0.000357598 0.00039652 0.000437646 0.00048102 0.000526643 0.000574516 0.000624638 0.00067701 0.000731632 0.000788503 0.000847623 0.000908994 0.000972614 0.00103849 0.00110667 0.00117714 0.00124991 0.00132498 0.00140234 0.001482 0.00156396 0.00164822 0.00173478 0.00182363 0.00191482 0.00200854 0.00210482 0.00220366 0.00230507 0.00240903 0.00251555 0.00262462 0.00273626 0.00285046 0.00296722 0.0030866 0.00320914 0.00333493 0.00346398 0.00359629 0.00373185 0.00387067 0.00401275 0.00415809 0.00430668 0.00445854 0.00461372 0.00477323 0.00493738 0.00510616 0.00527958 0.00545763 0.00564031 0.00582763 0.00601958 0.00621616 0.00641738 0.00662328 0.00683516 0.00705359 0.00727859 0.00751014 0.00774826 0.00799293 0.00824416 0.00850195 0.0087663 0.00903721 0.00931467 0.00959811 0.00988714 0.0101818 0.010482 0.0107878 0.0110992 0.0114162 0.0117388 0.012067 0.0124007 0.0127401 0 8.64468e-07 3.45787e-06 7.78021e-06 1.38315e-05 2.16117e-05 3.11208e-05 4.23589e-05 5.53259e-05 7.00219e-05 8.64468e-05 0.000104601 0.00012481 0.000147568 0.000172881 0.000200748 0.00023117 0.000264147 0.000299678 0.000337764 0.000378404 0.000421599 0.000467349 0.000515675 0.000566629 0.000620212 0.000676425 0.000735267 0.000796738 0.000860839 0.000927568 0.000996927 0.00106892 0.00114353 0.00122079 0.00130073 0.00138335 0.00146865 0.00155663 0.00164729 0.00174063 0.00183666 0.00193536 0.00203675 0.00214082 0.00224761 0.00235736 0.00247009 0.00258579 0.00270447 0.00282614 0.00295078 0.0030784 0.003209 0.00334258 0.00347914 0.00361876 0.00376203 0.00390908 0.0040599 0.0042145 0.00437287 0.00453502 0.00470095 0.00487065 0.00504413 0.00522138 0.0054025 0.00558861 0.00578005 0.00597683 0.00617894 0.00638639 0.00659918 0.0068173 0.00704076 0.00726956 0.00750369 0.00774321 0.00798957 0.00824342 0.00850476 0.00877358 0.0090499 0.0093337 0.009625 0.00992378 0.0102301 0.0105438 0.0108651 0.0111932 0.0115276 0.0118685 0.0122159 0.0125696 0.0129297 0.0132963 0.0136692 0.0140486 0.0144343 0.0148265 0 1.01321e-06 4.05283e-06 9.11887e-06 1.62113e-05 2.53302e-05 3.64755e-05 4.96472e-05 6.48453e-05 8.20699e-05 0.000101321 0.000122598 0.000146267 0.000172881 0.000202445 0.00023496 0.000270426 0.000308842 0.000350209 0.000394526 0.000441794 0.000492013 0.000545182 0.000601326 0.000660501 0.000722707 0.000787946 0.000856217 0.00092752 0.00100185 0.00107922 0.00115962 0.00124305 0.00132952 0.00141902 0.00151161 0.00160729 0.00170605 0.0018079 0.00191283 0.00202085 0.00213195 0.00224614 0.00236342 0.00248378 0.00260728 0.00273416 0.00286446 0.00299818 0.00313531 0.00327586 0.00341982 0.00356721 0.00371801 0.00387222 0.00402985 0.00419099 0.00435629 0.0045259 0.00469981 0.00487803 0.00506055 0.00524738 0.00543851 0.00563394 0.00583368 0.00603772 0.00624616 0.00646025 0.00668036 0.00690649 0.00713866 0.00737684 0.00762106 0.0078713 0.00812756 0.00838986 0.00865817 0.00893257 0.00921462 0.00950503 0.00980379 0.0101109 0.0104264 0.0107502 0.0110823 0.0114229 0.0117718 0.012129 0.0124946 0.0128678 0.0132482 0.0136358 0.0140306 0.0144326 0.0148418 0.0152581 0.0156817 0.0161124 0.0165503 0.0169955 0 1.17713e-06 4.7085e-06 1.05941e-05 1.8834e-05 2.94281e-05 4.23765e-05 5.76791e-05 7.5336e-05 9.53471e-05 0.000117713 0.000142432 0.000169908 0.000200748 0.00023496 0.000272543 0.000313498 0.000357823 0.00040552 0.000456588 0.000511027 0.000568838 0.00063002 0.000694599 0.000762634 0.000834127 0.000909078 0.000987487 0.00106935 0.00115468 0.00124346 0.0013357 0.0014314 0.00153056 0.00163319 0.00173932 0.00184897 0.00196212 0.00207879 0.00219897 0.00232266 0.00244986 0.00258057 0.00271479 0.00285252 0.00299382 0.00313895 0.00328795 0.00344083 0.00359758 0.00375819 0.00392268 0.00409104 0.00426328 0.00443938 0.00461935 0.00480329 0.00499193 0.0051854 0.00538372 0.00558688 0.00579489 0.00600773 0.00622542 0.00644795 0.00667532 0.00690754 0.0071447 0.00738815 0.0076383 0.00789516 0.00815872 0.00842898 0.00870595 0.00898961 0.00927998 0.00957706 0.00988083 0.0101914 0.0105103 0.0108384 0.0111757 0.0115221 0.0118776 0.0122423 0.0126162 0.0129992 0.0133914 0.0137927 0.0142032 0.014622 0.0150488 0.0154836 0.0159262 0.0163768 0.0168353 0.0173018 0.0177762 0.0182585 0.0187487 0.0192469 0 1.35622e-06 5.42487e-06 1.2206e-05 2.16995e-05 3.39055e-05 4.88239e-05 6.64547e-05 8.6798e-05 0.000109854 0.000135622 0.000164102 0.000195732 0.00023117 0.000270426 0.000313498 0.000360386 0.000411091 0.000465612 0.00052395 0.000586104 0.000652075 0.000721862 0.000795493 0.000873029 0.000954472 0.00103982 0.00112908 0.00122224 0.00131931 0.00142029 0.00152518 0.00163397 0.00174667 0.00186329 0.00198386 0.00210838 0.00223687 0.00236931 0.0025057 0.00264605 0.00279036 0.00293863 0.00309085 0.00324703 0.00340722 0.00357172 0.00374056 0.00391374 0.00409127 0.00427314 0.00445936 0.00464991 0.00484481 0.00504406 0.00524764 0.00545567 0.00566893 0.00588759 0.00611163 0.00634106 0.00657588 0.00681609 0.0070617 0.00731269 0.00756907 0.00783085 0.00809812 0.00837232 0.00865389 0.00894283 0.00923913 0.0095428 0.00985384 0.0101722 0.010498 0.0108312 0.0111717 0.0115196 0.0118767 0.0122436 0.0126204 0.0130071 0.0134037 0.0138102 0.0142266 0.0146528 0.015089 0.015535 0.0159909 0.0164559 0.0169295 0.0174118 0.0179027 0.0184023 0.0189104 0.0194273 0.0199527 0.0204868 0.0210295 0.0215808 0 1.55049e-06 6.20195e-06 1.39544e-05 2.48078e-05 3.87622e-05 5.58176e-05 7.59739e-05 9.92312e-05 0.00012559 0.000155049 0.000187609 0.000223739 0.000264147 0.000308842 0.000357823 0.000411091 0.000468645 0.000530485 0.000596612 0.000667025 0.000741724 0.00082071 0.00090401 0.000991687 0.00108374 0.00118018 0.00128099 0.00138619 0.00149576 0.00160971 0.00172804 0.00185075 0.00197784 0.00210932 0.00224521 0.00238554 0.00253028 0.00267944 0.00283303 0.00299104 0.00315347 0.00332033 0.00349161 0.00366731 0.00384749 0.00403247 0.00422228 0.00441692 0.0046164 0.0048207 0.00502984 0.00524381 0.00546262 0.00568625 0.00591472 0.00614813 0.00638731 0.00663244 0.00688352 0.00714055 0.00740353 0.00767246 0.00794733 0.00822815 0.00851492 0.00880764 0.00910642 0.00941276 0.00972712 0.0100495 0.0103799 0.0107183 0.0110647 0.0114192 0.0117817 0.0121522 0.0125307 0.0129173 0.0133136 0.0137206 0.0141381 0.0145661 0.0150047 0.0154538 0.0159135 0.0163837 0.0168645 0.0173558 0.0178577 0.0183693 0.0188903 0.0194205 0.0199601 0.0205089 0.0210671 0.0216345 0.0222113 0.0227973 0.0233926 0.0239973 0 1.75993e-06 7.03973e-06 1.58394e-05 2.81589e-05 4.39983e-05 6.33576e-05 8.62367e-05 0.000112636 0.000142555 0.000175993 0.000212952 0.000253929 0.000299678 0.000350209 0.00040552 0.000465612 0.000530485 0.000600139 0.000674573 0.000753789 0.000837785 0.000926562 0.00102015 0.00111861 0.00122194 0.00133015 0.00144323 0.00156118 0.00168401 0.00181171 0.00194429 0.00208175 0.00222407 0.00237128 0.0025234 0.00268042 0.00284236 0.0030092 0.00318096 0.00335762 0.00353919 0.00372567 0.00391706 0.00411336 0.00431464 0.00452121 0.00473312 0.00495037 0.00517295 0.00540088 0.00563414 0.00587274 0.00611668 0.00636596 0.00662058 0.00688065 0.00714706 0.00741998 0.00769942 0.00798537 0.00827784 0.00857682 0.00888232 0.00919434 0.00951287 0.00983792 0.0101696 0.0105095 0.010858 0.0112152 0.011581 0.0119555 0.0123387 0.0127305 0.0131309 0.0135401 0.0139579 0.0143844 0.0148213 0.0152693 0.0157285 0.0161989 0.0166804 0.017173 0.0176769 0.0181918 0.0187179 0.0192552 0.0198036 0.0203624 0.0209311 0.0215098 0.0220983 0.0226968 0.0233052 0.0239236 0.0245519 0.02519 0.0258382 0.0264962 0 1.98456e-06 7.93822e-06 1.7861e-05 3.17529e-05 4.96139e-05 7.1444e-05 9.72432e-05 0.000127012 0.000160749 0.000198456 0.000240131 0.000286302 0.000337764 0.000394526 0.000456588 0.00052395 0.000596612 0.000674573 0.000757835 0.000846396 0.000940258 0.00103942 0.00114391 0.00125379 0.00136906 0.00148972 0.00161578 0.00174723 0.00188407 0.00202631 0.00217394 0.00232696 0.00248537 0.00264918 0.0028184 0.00299305 0.00317311 0.00335858 0.00354947 0.00374578 0.00394751 0.00415465 0.00436721 0.00458519 0.00480865 0.00503793 0.00527307 0.00551407 0.00576094 0.00601366 0.00627225 0.0065367 0.00680702 0.00708319 0.00736523 0.00765325 0.00794818 0.00825019 0.0085593 0.00887551 0.0091988 0.00952919 0.00986668 0.0102113 0.0105629 0.0109217 0.0112877 0.0116624 0.0120465 0.0124398 0.0128425 0.0132544 0.0136756 0.0141061 0.0145458 0.0149949 0.0154532 0.0159209 0.0163995 0.0168899 0.0173919 0.0179056 0.0184309 0.018968 0.0195168 0.0200772 0.0206493 0.0212331 0.0218286 0.022435 0.023052 0.0236795 0.0243174 0.0249659 0.0256249 0.0262945 0.0269745 0.027665 0.0283661 0.0290776 0 2.22435e-06 8.89742e-06 2.00192e-05 3.55897e-05 5.56089e-05 8.00768e-05 0.000108993 0.000142359 0.000180173 0.000222435 0.000269147 0.000320858 0.000378404 0.000441794 0.000511027 0.000586104 0.000667025 0.000753789 0.000846396 0.000944847 0.00104914 0.00115928 0.00127529 0.00139723 0.00152511 0.00165891 0.00179866 0.00194433 0.00209594 0.00225349 0.00241697 0.00258638 0.00276173 0.00294301 0.00313024 0.00332341 0.00352252 0.00372758 0.00393859 0.00415554 0.00437843 0.00460727 0.00484206 0.00508278 0.00532953 0.00558263 0.00584213 0.00610804 0.00638035 0.00665906 0.00694418 0.0072357 0.00753362 0.00783794 0.00814867 0.00846592 0.00879066 0.00912308 0.00946318 0.00981096 0.0101664 0.0105296 0.0109004 0.0112789 0.0116651 0.0120589 0.0124606 0.0128717 0.0132926 0.0137235 0.0141643 0.0146149 0.0150755 0.015546 0.0160263 0.0165166 0.0170168 0.0175269 0.0180485 0.0185822 0.0191281 0.0196861 0.0202563 0.0208387 0.0214332 0.0220398 0.0226586 0.0232896 0.0239327 0.0245873 0.0252529 0.0259296 0.0266174 0.0273163 0.0280262 0.0287471 0.0294791 0.0302222 0.0309764 0.0317416 0 2.47933e-06 9.91732e-06 2.2314e-05 3.96693e-05 6.19832e-05 8.92559e-05 0.000121487 0.000158677 0.000200826 0.000247933 0.000299999 0.000357598 0.000421599 0.000492013 0.000568838 0.000652075 0.000741724 0.000837785 0.000940258 0.00104914 0.00116444 0.00128615 0.00141429 0.00154894 0.00169008 0.00183772 0.00199185 0.00215249 0.00231963 0.00249326 0.00267339 0.00286002 0.00305315 0.00325277 0.00345889 0.0036715 0.00389061 0.00411621 0.0043483 0.00458688 0.00483196 0.00508353 0.0053416 0.00560615 0.00587728 0.00615531 0.00644031 0.00673227 0.00703119 0.00733707 0.00764992 0.00796972 0.00829648 0.00863021 0.00897089 0.00931867 0.00967452 0.0100387 0.0104111 0.0107917 0.0111807 0.0115779 0.0119835 0.0123973 0.0128193 0.0132497 0.0136884 0.0141372 0.0145964 0.0150662 0.0155464 0.0160372 0.0165384 0.0170502 0.0175725 0.0181052 0.0186485 0.0192023 0.019768 0.0203463 0.0209371 0.0215406 0.0221565 0.022785 0.0234261 0.0240797 0.0247459 0.0254246 0.0261159 0.0268191 0.0275339 0.0282603 0.0289983 0.0297478 0.0305089 0.0312816 0.0320658 0.0328616 0.033669 0.034488 0 2.74948e-06 1.09979e-05 2.47453e-05 4.39917e-05 6.8737e-05 9.89813e-05 0.000134725 0.000175967 0.000222708 0.000274948 0.000332687 0.00039652 0.000467349 0.000545182 0.00063002 0.000721862 0.00082071 0.000926562 0.00103942 0.00115928 0.00128615 0.00142002 0.00156092 0.0017089 0.00186397 0.00202613 0.00219537 0.0023717 0.00255511 0.00274562 0.0029432 0.00314787 0.00335963 0.00357847 0.00380437 0.00403734 0.00427736 0.00452445 0.00477861 0.00503982 0.00530809 0.00558343 0.00586583 0.0061553 0.00645189 0.00675598 0.00706761 0.00738677 0.00771346 0.0080477 0.00838947 0.00873877 0.00909562 0.00945999 0.00983191 0.0102115 0.0105998 0.0109969 0.0114029 0.0118178 0.0122416 0.0126743 0.0131159 0.0135663 0.0140257 0.0144939 0.0149711 0.0154589 0.0159579 0.0164679 0.0169889 0.0175211 0.0180644 0.0186188 0.0191842 0.0197607 0.0203484 0.0209471 0.0215582 0.0221822 0.0228191 0.0234689 0.0241315 0.0248071 0.0254955 0.0261968 0.0269111 0.0276382 0.0283782 0.0291306 0.029895 0.0306715 0.03146 0.0322606 0.0330732 0.0338978 0.0347345 0.0355833 0.0364441 0.0373169 0 3.03495e-06 1.21398e-05 2.73146e-05 4.85592e-05 7.58738e-05 0.000109258 0.000148713 0.000194237 0.000245831 0.000303495 0.000367229 0.000437646 0.000515675 0.000601326 0.000694599 0.000795493 0.00090401 0.00102015 0.00114391 0.00127529 0.00141429 0.00156092 0.00171519 0.00187715 0.0020468 0.00222415 0.0024092 0.00260194 0.00280237 0.00301049 0.00322631 0.00344983 0.00368104 0.00391993 0.00416647 0.00442066 0.0046825 0.00495199 0.00522912 0.0055139 0.00580633 0.00610641 0.00641413 0.0067295 0.00705259 0.00738376 0.00772305 0.00807046 0.008426 0.00878966 0.00916144 0.00954134 0.00992936 0.0103255 0.0107298 0.0111423 0.0115641 0.0119954 0.0124362 0.0128865 0.0133463 0.0138155 0.0142943 0.0147825 0.0152803 0.0157875 0.0163044 0.0168324 0.0173721 0.0179234 0.0184864 0.0190611 0.0196474 0.0202454 0.020855 0.0214763 0.0221092 0.0227539 0.0234112 0.0240817 0.0247655 0.0254623 0.0261724 0.0268956 0.0276321 0.0283817 0.0291444 0.0299204 0.0307095 0.0315114 0.0323258 0.0331526 0.033992 0.0348438 0.0357081 0.0365849 0.0374742 0.038376 0.0392903 0.040217 0 3.33605e-06 1.33442e-05 3.00245e-05 5.33768e-05 8.34013e-05 0.000120098 0.000163467 0.000213507 0.00027022 0.000333605 0.000403662 0.00048102 0.000566629 0.000660501 0.000762634 0.000873029 0.000991687 0.00111861 0.00125379 0.00139723 0.00154894 0.0017089 0.00187715 0.00205371 0.00223859 0.00243179 0.0026333 0.00284313 0.00306128 0.00328775 0.00352253 0.00376564 0.00401706 0.00427677 0.00454474 0.00482094 0.00510538 0.00539807 0.00569899 0.00600815 0.00632555 0.00665119 0.00698507 0.00732719 0.00767762 0.00803671 0.00840451 0.008781 0.00916621 0.00956011 0.00996273 0.010374 0.0107941 0.0112228 0.0116602 0.0121065 0.0125626 0.0130289 0.0135052 0.0139915 0.014488 0.0149945 0.0155112 0.0160379 0.0165746 0.0171215 0.0176786 0.0182474 0.0188283 0.0194215 0.0200269 0.0206444 0.0212742 0.0219161 0.0225702 0.0232365 0.023915 0.0246058 0.0253096 0.0260268 0.0267575 0.0275017 0.0282593 0.0290303 0.0298148 0.0306128 0.0314242 0.032249 0.0330873 0.0339388 0.0348031 0.0356804 0.0365705 0.0374736 0.0383896 0.0393184 0.0402602 0.0412149 0.0421826 0.0431631 0 3.6528e-06 1.46112e-05 3.28752e-05 5.84448e-05 9.132e-05 0.000131501 0.000178987 0.000233779 0.000295877 0.00036528 0.000441989 0.000526643 0.000620212 0.000722707 0.000834127 0.000954472 0.00108374 0.00122194 0.00136906 0.00152511 0.00169008 0.00186397 0.0020468 0.00223859 0.00243933 0.00264903 0.00286768 0.00309529 0.00333186 0.00357738 0.00383185 0.00409528 0.00436767 0.00464899 0.00493915 0.00523815 0.00554599 0.00586266 0.00618817 0.00652252 0.00686571 0.00721774 0.0075786 0.0079483 0.00832691 0.00871476 0.00911189 0.0095183 0.00993399 0.010359 0.0107932 0.0112368 0.0116896 0.0121517 0.0126231 0.0131039 0.0135951 0.014097 0.0146095 0.0151327 0.0156666 0.0162111 0.0167662 0.017332 0.0179084 0.0184955 0.0190934 0.0197035 0.0203262 0.0209617 0.0216098 0.0222707 0.0229442 0.0236305 0.0243294 0.025041 0.0257653 0.0265023 0.0272527 0.0280168 0.0287946 0.0295862 0.0303914 0.0312104 0.0320431 0.0328895 0.0337496 0.0346234 0.0355109 0.0364119 0.0373262 0.0382538 0.0391948 0.040149 0.0411166 0.0420975 0.0430917 0.0440992 0.04512 0.0461542 0 3.98519e-06 1.59408e-05 3.58667e-05 6.3763e-05 9.96298e-05 0.000143467 0.000195274 0.000255052 0.0003228 0.000398519 0.000482208 0.000574516 0.000676425 0.000787946 0.000909078 0.00103982 0.00118018 0.00133015 0.00148972 0.00165891 0.00183772 0.00202613 0.00222415 0.00243179 0.00264903 0.00287588 0.00311234 0.00335841 0.00361409 0.00387937 0.00415427 0.00443877 0.00473289 0.00503657 0.00534971 0.00567229 0.00600431 0.00634577 0.00669668 0.00705703 0.00742682 0.00780605 0.00819473 0.00859284 0.00900047 0.00941791 0.0098452 0.0102823 0.0107294 0.0111862 0.0116529 0.0121295 0.0126159 0.0131122 0.0136183 0.0141345 0.0146616 0.0151999 0.0157494 0.0163101 0.016882 0.0174651 0.0180594 0.0186649 0.0192816 0.0199095 0.0205487 0.0212007 0.0218657 0.022544 0.0232354 0.0239399 0.0246576 0.0253884 0.0261324 0.0268896 0.0276599 0.0284433 0.0292405 0.0300517 0.0308768 0.0317158 0.0325689 0.0334358 0.0343168 0.0352117 0.0361206 0.0370434 0.0379802 0.0389308 0.0398951 0.0408731 0.0418648 0.0428702 0.0438893 0.0449221 0.0459686 0.0470288 0.0481027 0.0491903 0 4.33323e-06 1.73329e-05 3.8999e-05 6.93316e-05 0.000108331 0.000155996 0.000212328 0.000277326 0.000350991 0.000433323 0.00052432 0.000624638 0.000735267 0.000856217 0.000987487 0.00112908 0.00128099 0.00144323 0.00161578 0.00179866 0.00199185 0.00219537 0.0024092 0.0026333 0.00286768 0.00311234 0.00336728 0.00363249 0.00390798 0.00419374 0.00448979 0.00479611 0.0051127 0.00543953 0.00577642 0.00612336 0.00648036 0.00684741 0.00722451 0.00761166 0.00800887 0.00841613 0.00883344 0.00926081 0.00969829 0.0101462 0.0106044 0.0110732 0.0115523 0.0120418 0.0125418 0.0130522 0.0135731 0.0141043 0.014646 0.015