<?xml version="1.0"?> 
<VTKFile type="StructuredGrid" version="0.1"> 
<StructuredGrid WholeExtent="0 100 0 100 0 0"> 
<Piece Extent="0 100 0 100 0 0"> 
<PointData Scalars="u">
<DataArray type="Float32" Name="u" format="ascii" NumberOfComponents="1"> 
0 0 0 0 0 0 0 0 0 0 0 0 0 0 0 0 0 0 0 0 0 0 0 0 0 0 0 0 0 0 0 0 0 0 0 0 0 0 0 0 0 0 0 0 0 0 0 0 0 0 0 0 0 0 0 0 0 0 0 0 0 0 0 0 0 0 0 0 0 0 0 0 0 0 0 0 0 0 0 0 0 0 0 0 0 0 0 0 0 0 0 0 0 0 0 0 0 0 0 0 0 0 0.000230223 0.000462089 0.000695387 0.000929903 0.00116541 0.00140168 0.00163846 0.00187549 0.00211253 0.00234932 0.00258558 0.00282103 0.0030554 0.00328841 0.00351976 0.00374916 0.00397631 0.00420092 0.00442268 0.00464128 0.00485643 0.00506781 0.00527513 0.00547809 0.00567637 0.00586967 0.00605771 0.00624021 0.00641686 0.00658739 0.00675151 0.00690898 0.00705954 0.00720293 0.00733891 0.00746724 0.00758773 0.00770016 0.00780435 0.00790009 0.00798722 0.00806561 0.00813511 0.0081956 0.00824697 0.00828911 0.00832197 0.00834548 0.00835962 0.00836434 0.00835962 0.00834548 0.00832197 0.00828911 0.00824697 0.0081956 0.00813511 0.00806561 0.00798722 0.00790009 0.00780435 0.00770016 0.00758773 0.00746724 0.00733891 0.00720293 0.00705954 0.00690898 0.00675151 0.00658739 0.00641686 0.00624021 0.00605771 0.00586967 0.00567637 0.00547809 0.00527513 0.00506781 0.00485643 0.00464128 0.00442268 0.00420092 0.00397631 0.00374916 0.00351976 0.00328841 0.0030554 0.00282103 0.00258558 0.00234932 0.00211253 0.00187549 0.00163846 0.00140168 0.00116541 0.000929903 0.000695387 0.000462089 0.000230223 0 0 0.000462089 0.000927876 0.00139695 0.00186887 0.00234322 0.0028195 0.00329722 0.00377588 0.00425496 0.00473394 0.00521226 0.00568936 0.00616466 0.00663757 0.00710752 0.00757388 0.00803604 0.00849338 0.00894528 0.00939108 0.00983017 0.0102619 0.0106856 0.0111007 0.0115065 0.0119024 0.0122878 0.012662 0.0130245 0.0133746 0.0137117 0.0140354 0.014345 0.01464 0.0149199 0.0151841 0.0154323 0.015664 0.0158788 0.0160763 0.016256 0.0164178 0.0165612 0.0166861 0.0167922 0.0168792 0.016947 0.0169956 0.0170248 0.0170346 0.0170248 0.0169956 0.016947 0.0168792 0.0167922 0.0166861 0.0165612 0.0164178 0.016256 0.0160763 0.0158788 0.015664 0.0154323 0.0151841 0.0149199 0.01464 0.014345 0.0140354 0.0137117 0.0133746 0.0130245 0.012662 0.0122878 0.0119024 0.0115065 0.0111007 0.0106856 0.0102619 0.00983017 0.00939108 0.00894528 0.00849338 0.00803604 0.00757388 0.00710752 0.00663757 0.00616466 0.00568936 0.00521226 0.00473394 0.00425496 0.00377588 0.00329722 0.0028195 0.00234322 0.00186887 0.00139695 0.000927876 0.000462089 0 0 0.000695387 0.00139695 0.00210406 0.0028161 0.00353239 0.00425225 0.00497491 0.00569961 0.00642556 0.00715198 0.00787802 0.0086028 0.00932544 0.0100451 0.0107607 0.0114715 0.0121764 0.0128746 0.0135649 0.0142464 0.0149182 0.0155792 0.0162283 0.0168647 0.0174873 0.0180951 0.018687 0.0192622 0.0198197 0.0203584 0.0208775 0.0213761 0.0218532 0.0223081 0.0227399 0.0231478 0.023531 0.0238888 0.0242207 0.0245259 0.0248038 0.0250539 0.0252757 0.0254689 0.0256331 0.0257677 0.0258727 0.0259479 0.0259931 0.0260082 0.0259931 0.0259479 0.0258727 0.0257677 0.0256331 0.0254689 0.0252757 0.0250539 0.0248038 0.0245259 0.0242207 0.0238888 0.023531 0.0231478 0.0227399 0.0223081 0.0218532 0.0213761 0.0208775 0.0203584 0.0198197 0.0192622 0.018687 0.0180951 0.0174873 0.0168647 0.0162283 0.0155792 0.0149182 0.0142464 0.0135649 0.0128746 0.0121764 0.0114715 0.0107607 0.0100451 0.00932544 0.0086028 0.00787802 0.00715198 0.00642556 0.00569961 0.00497491 0.00425225 0.00353239 0.0028161 0.00210406 0.00139695 0.000695387 0 0 0.000929903 0.00186887 0.0028161 0.00377073 0.00473191 0.0056987 0.00667009 0.00764505 0.00862253 0.00960147 0.0105807 0.0115591 0.0125353 0.0135083 0.0144767 0.0154392 0.0163946 0.0173415 0.0182784 0.0192042 0.0201173 0.0210164 0.0219 0.0227668 0.0236154 0.0244443 0.0252521 0.0260375 0.0267991 0.0275356 0.0282456 0.0289278 0.0295811 0.0302042 0.0307959 0.031355 0.0318805 0.0323715 0.0328269 0.0332458 0.0336274 0.0339709 0.0342757 0.0345412 0.0347668 0.0349519 0.0350962 0.0351996 0.0352617 0.0352825 0.0352617 0.0351996 0.0350962 0.0349519 0.0347668 0.0345412 0.0342757 0.0339709 0.0336274 0.0332458 0.0328269 0.0323715 0.0318805 0.031355 0.0307959 0.0302042 0.0295811 0.0289278 0.0282456 0.0275356 0.0267991 0.0260375 0.0252521 0.0244443 0.0236154 0.0227668 0.0219 0.0210164 0.0201173 0.0192042 0.0182784 0.0173415 0.0163946 0.0154392 0.0144767 0.0135083 0.0125353 0.0115591 0.0105807 0.00960147 0.00862253 0.00764505 0.00667009 0.0056987 0.00473191 0.00377073 0.0028161 0.00186887 0.000929903 0 0 0.00116541 0.00234322 0.00353239 0.00473191 0.00594068 0.00715756 0.00838128 0.00961054 0.010844 0.0120804 0.0133181 0.0145558 0.0157918 0.0170246 0.0182526 0.0194742 0.0206875 0.021891 0.0230827 0.024261 0.0254241 0.0265701 0.0276972 0.0288035 0.0298872 0.0309464 0.0319794 0.0329842 0.0339592 0.0349025 0.0358123 0.0366871 0.037525 0.0383246 0.0390842 0.0398023 0.0404775 0.0411085 0.041694 0.0422328 0.0427237 0.0431657 0.043558 0.0438997 0.0441901 0.0444284 0.0446143 0.0447475 0.0448275 0.0448542 0.0448275 0.0447475 0.0446143 0.0444284 0.0441901 0.0438997 0.043558 0.0431657 0.0427237 0.0422328 0.041694 0.0411085 0.0404775 0.0398023 0.0390842 0.0383246 0.037525 0.0366871 0.0358123 0.0349025 0.0339592 0.0329842 0.0319794 0.0309464 0.0298872 0.0288035 0.0276972 0.0265701 0.0254241 0.024261 0.0230827 0.021891 0.0206875 0.0194742 0.0182526 0.0170246 0.0157918 0.0145558 0.0133181 0.0120804 0.010844 0.00961054 0.00838128 0.00715756 0.00594068 0.00473191 0.00353239 0.00234322 0.00116541 0 0 0.00140168 0.0028195 0.00425225 0.0056987 0.00715756 0.00862747 0.0101069 0.0115943 0.013088 0.0145865 0.0160879 0.0175904 0.0190921 0.0205911 0.0220854 0.023573 0.0250518 0.0265195 0.0279741 0.0294132 0.0308348 0.0322363 0.0336157 0.0349705 0.0362985 0.0375973 0.0388646 0.0400981 0.0412956 0.0424547 0.0435734 0.0446493 0.0456805 0.0466649 0.0476005 0.0484853 0.0493175 0.0500956 0.0508178 0.0514825 0.0520882 0.0526338 0.0531181 0.0535401 0.0538988 0.0541932 0.0544228 0.0545873 0.0546862 0.0547192 0.0546862 0.0545873 0.0544228 0.0541932 0.0538988 0.0535401 0.0531181 0.0526338 0.0520882 0.0514825 0.0508178 0.0500956 0.0493175 0.0484853 0.0476005 0.0466649 0.0456805 0.0446493 0.0435734 0.0424547 0.0412956 0.0400981 0.0388646 0.0375973 0.0362985 0.0349705 0.0336157 0.0322363 0.0308348 0.0294132 0.0279741 0.0265195 0.0250518 0.023573 0.0220854 0.0205911 0.0190921 0.0175904 0.0160879 0.0145865 0.013088 0.0115943 0.0101069 0.00862747 0.00715756 0.0056987 0.00425225 0.0028195 0.00140168 0 0 0.00163846 0.00329722 0.00497491 0.00667009 0.00838128 0.0101069 0.0118451 0.0135942 0.0153522 0.0171172 0.0188871 0.0206598 0.0224329 0.0242042 0.0259713 0.0277318 0.0294831 0.0312226 0.0329477 0.0346558 0.0363441 0.0380098 0.0396501 0.0412623 0.0428434 0.0443908 0.0459015 0.0473727 0.0488017 0.0501857 0.0515219 0.0528078 0.0540407 0.0552182 0.0563377 0.0573968 0.0583934 0.0593253 0.0601906 0.0609873 0.0617135 0.0623678 0.0629487 0.0634549 0.0638852 0.0642384 0.064514 0.0647114 0.0648301 0.0648697 0.0648301 0.0647114 0.064514 0.0642384 0.0638852 0.0634549 0.0629487 0.0623678 0.0617135 0.0609873 0.0601906 0.0593253 0.0583934 0.0573968 0.0563377 0.0552182 0.0540407 0.0528078 0.0515219 0.0501857 0.0488017 0.0473727 0.0459015 0.0443908 0.0428434 0.0412623 0.0396501 0.0380098 0.0363441 0.0346558 0.0329477 0.0312226 0.0294831 0.0277318 0.0259713 0.0242042 0.0224329 0.0206598 0.0188871 0.0171172 0.0153522 0.0135942 0.0118451 0.0101069 0.00838128 0.00667009 0.00497491 0.00329722 0.00163846 0 0 0.00187549 0.00377588 0.00569961 0.00764505 0.00961054 0.0115943 0.0135942 0.0156082 0.0176342 0.0196699 0.0217129 0.0237607 0.0258106 0.02786 0.0299061 0.0319461 0.0339769 0.0359954 0.0379987 0.0399834 0.0419465 0.0438846 0.0457944 0.0476725 0.0495156 0.0513203 0.0530832 0.054801 0.0564704 0.0580879 0.0596504 0.0611547 0.0625976 0.0639762 0.0652875 0.0665285 0.0676966 0.0687893 0.0698041 0.0707387 0.0715909 0.0723587 0.0730406 0.073635 0.0741403 0.0745552 0.0748789 0.0751107 0.0752501 0.0752967 0.0752501 0.0751107 0.0748789 0.0745552 0.0741403 0.073635 0.0730406 0.0723587 0.0715909 0.0707387 0.0698041 0.0687893 0.0676966 0.0665285 0.0652875 0.0639762 0.0625976 0.0611547 0.0596504 0.0580879 0.0564704 0.054801 0.0530832 0.0513203 0.0495156 0.0476725 0.0457944 0.0438846 0.0419465 0.0399834 0.0379987 0.0359954 0.0339769 0.0319461 0.0299061 0.02786 0.0258106 0.0237607 0.0217129 0.0196699 0.0176342 0.0156082 0.0135942 0.0115943 0.00961054 0.00764505 0.00569961 0.00377588 0.00187549 0 0 0.00211253 0.00425496 0.00642556 0.00862253 0.010844 0.013088 0.0153522 0.0176342 0.0199316 0.0222418 0.0245623 0.0268899 0.0292218 0.0315548 0.0338859 0.0362116 0.0385285 0.040833 0.0431216 0.0453906 0.0476363 0.0498548 0.0520422 0.0541947 0.0563082 0.0583789 0.0604027 0.0623757 0.0642941 0.0661538 0.067951 0.069682 0.0713431 0.0729308 0.0744415 0.0758717 0.0772184 0.0784785 0.0796492 0.0807276 0.0817111 0.0825975 0.0833848 0.0840712 0.0846548 0.085134 0.0855079 0.0857757 0.0859368 0.0859907 0.0859368 0.0857757 0.0855079 0.085134 0.0846548 0.0840712 0.0833848 0.0825975 0.0817111 0.0807276 0.0796492 0.0784785 0.0772184 0.0758717 0.0744415 0.0729308 0.0713431 0.069682 0.067951 0.0661538 0.0642941 0.0623757 0.0604027 0.0583789 0.0563082 0.0541947 0.0520422 0.0498548 0.0476363 0.0453906 0.0431216 0.040833 0.0385285 0.0362116 0.0338859 0.0315548 0.0292218 0.0268899 0.0245623 0.0222418 0.0199316 0.0176342 0.0153522 0.013088 0.010844 0.00862253 0.00642556 0.00425496 0.00211253 0 0 0.00234932 0.00473394 0.00715198 0.00960147 0.0120804 0.0145865 0.0171172 0.0196699 0.0222418 0.0248302 0.0274321 0.0300441 0.0326627 0.0352846 0.0379062 0.0405236 0.043133 0.0457302 0.0483112 0.0508717 0.0534075 0.0559142 0.0583872 0.0608221 0.0632144 0.0655593 0.0678524 0.0700891 0.0722649 0.0743752 0.0764154 0.0783813 0.0802686 0.0820732 0.0837908 0.0854176 0.0869497 0.0883838 0.0897165 0.0909445 0.0920646 0.0930744 0.0939714 0.0947536 0.0954187 0.095965 0.0963912 0.0966965 0.0968802 0.0969416 0.0968802 0.0966965 0.0963912 0.095965 0.0954187 0.0947536 0.0939714 0.0930744 0.0920646 0.0909445 0.0897165 0.0883838 0.0869497 0.0854176 0.0837908 0.0820732 0.0802686 0.0783813 0.0764154 0.0743752 0.0722649 0.0700891 0.0678524 0.0655593 0.0632144 0.0608221 0.0583872 0.0559142 0.0534075 0.0508717 0.0483112 0.0457302 0.043133 0.0405236 0.0379062 0.0352846 0.0326627 0.0300441 0.0274321 0.0248302 0.0222418 0.0196699 0.0171172 0.0145865 0.0120804 0.00960147 0.00715198 0.00473394 0.00234932 0 0 0.00258558 0.00521226 0.00787802 0.0105807 0.0133181 0.0160879 0.0188871 0.0217129 0.0245623 0.0274321 0.030319 0.0332194 0.0361294 0.039045 0.0419624 0.0448773 0.0477851 0.0506814 0.0535614 0.0564204 0.0592536 0.0620559 0.0648222 0.0675474 0.0702263 0.0728537 0.0754242 0.0779328 0.0803742 0.0827431 0.0850344 0.0872432 0.0893645 0.0913935 0.0933254 0.0951557 0.0968801 0.0984947 0.0999955 0.101379 0.102641 0.103778 0.104789 0.105671 0.106421 0.107037 0.107517 0.107862 0.108069 0.108138 0.108069 0.107862 0.107517 0.107037 0.106421 0.105671 0.104789 0.103778 0.102641 0.101379 0.0999955 0.0984947 0.0968801 0.0951557 0.0933254 0.0913935 0.0893645 0.0872432 0.0850344 0.0827431 0.0803742 0.0779328 0.0754242 0.0728537 0.0702263 0.0675474 0.0648222 0.0620559 0.0592536 0.0564204 0.0535614 0.0506814 0.0477851 0.0448773 0.0419624 0.039045 0.0361294 0.0332194 0.030319 0.0274321 0.0245623 0.0217129 0.0188871 0.0160879 0.0133181 0.0105807 0.00787802 0.00521226 0.00258558 0 0 0.00282103 0.00568936 0.0086028 0.0115591 0.0145558 0.0175904 0.0206598 0.0237607 0.0268899 0.0300441 0.0332194 0.0364119 0.0396173 0.0428312 0.0460493 0.0492668 0.0524787 0.05568 0.0588653 0.0620293 0.0651667 0.0682717 0.0713385 0.0743614 0.0773346 0.080252 0.0831078 0.0858961 0.0886109 0.0912463 0.0937964 0.0962555 0.0986183 0.100879 0.103032 0.105073 0.106996 0.108797 0.110472 0.112016 0.113425 0.114695 0.115824 0.116809 0.117646 0.118335 0.118872 0.119256 0.119488 0.119565 0.119488 0.119256 0.118872 0.118335 0.117646 0.116809 0.115824 0.114695 0.113425 0.112016 0.110472 0.108797 0.106996 0.105073 0.103032 0.100879 0.0986183 0.0962555 0.0937964 0.0912463 0.0886109 0.0858961 0.0831078 0.080252 0.0773346 0.0743614 0.0713385 0.0682717 0.0651667 0.0620293 0.0588653 0.05568 0.0524787 0.0492668 0.0460493 0.0428312 0.0396173 0.0364119 0.0332194 0.0300441 0.0268899 0.0237607 0.0206598 0.0175904 0.0145558 0.0115591 0.0086028 0.00568936 0.00282103 0 0 0.0030554 0.00616466 0.00932544 0.0125353 0.0157918 0.0190921 0.0224329 0.0258106 0.0292218 0.0326627 0.0361294 0.0396173 0.0431217 0.046638 0.0501612 0.0536862 0.0572074 0.0607191 0.0642155 0.0676907 0.0711386 0.0745528 0.0779269 0.0812546 0.0845291 0.0877439 0.0908922 0.0939676 0.0969632 0.0998724 0.102689 0.105405 0.108017 0.110516 0.112898 0.115155 0.117283 0.119277 0.121131 0.122841 0.124401 0.125808 0.127059 0.128151 0.129079 0.129842 0.130437 0.130863 0.13112 0.131206 0.13112 0.130863 0.130437 0.129842 0.129079 0.128151 0.127059 0.125808 0.124401 0.122841 0.121131 0.119277 0.117283 0.115155 0.112898 0.110516 0.108017 0.105405 0.102689 0.0998724 0.0969632 0.0939676 0.0908922 0.0877439 0.0845291 0.0812546 0.0779269 0.0745528 0.0711386 0.0676907 0.0642155 0.0607191 0.0572074 0.0536862 0.0501612 0.046638 0.0431217 0.0396173 0.0361294 0.0326627 0.0292218 0.0258106 0.0224329 0.0190921 0.0157918 0.0125353 0.00932544 0.00616466 0.0030554 0 0 0.00328841 0.00663757 0.0100451 0.0135083 0.0170246 0.0205911 0.0242042 0.02786 0.0315548 0.0352846 0.039045 0.0428312 0.046638 0.0504603 0.0542926 0.0581295 0.0619646 0.0657917 0.0696045 0.0733964 0.0771607 0.0808903 0.0845781 0.088217 0.0917995 0.0953184 0.0987663 0.102136 0.105419 0.108609 0.111698 0.11468 0.117546 0.120291 0.122907 0.125387 0.127726 0.129918 0.131957 0.133837 0.135554 0.137102 0.138479 0.13968 0.140702 0.141541 0.142197 0.142666 0.142949 0.143043 0.142949 0.142666 0.142197 0.141541 0.140702 0.13968 0.138479 0.137102 0.135554 0.133837 0.131957 0.129918 0.127726 0.125387 0.122907 0.120291 0.117546 0.11468 0.111698 0.108609 0.105419 0.102136 0.0987663 0.0953184 0.0917995 0.088217 0.0845781 0.0808903 0.0771607 0.0733964 0.0696045 0.0657917 0.0619646 0.0581295 0.0542926 0.0504603 0.046638 0.0428312 0.039045 0.0352846 0.0315548 0.02786 0.0242042 0.0205911 0.0170246 0.0135083 0.0100451 0.00663757 0.00328841 0 0 0.00351976 0.00710752 0.0107607 0.0144767 0.0182526 0.0220854 0.0259713 0.0299061 0.0338859 0.0379062 0.0419624 0.0460493 0.0501612 0.0542926 0.0584377 0.0625902 0.0667435 0.0708906 0.0750247 0.0791384 0.0832245 0.0872751 0.0912824 0.0952385 0.0991353 0.102965 0.106718 0.110388 0.113966 0.117443 0.120812 0.124064 0.127192 0.130188 0.133045 0.135754 0.138309 0.140705 0.142933 0.144989 0.146866 0.14856 0.150065 0.151379 0.152498 0.153416 0.154133 0.154647 0.154956 0.15506 0.154956 0.154647 0.154133 0.153416 0.152498 0.151379 0.150065 0.14856 0.146866 0.144989 0.142933 0.140705 0.138309 0.135754 0.133045 0.130188 0.127192 0.124064 0.120812 0.117443 0.113966 0.110388 0.106718 0.102965 0.0991353 0.0952385 0.0912824 0.0872751 0.0832245 0.0791384 0.0750247 0.0708906 0.0667435 0.0625902 0.0584377 0.0542926 0.0501612 0.0460493 0.0419624 0.0379062 0.0338859 0.0299061 0.0259713 0.0220854 0.0182526 0.0144767 0.0107607 0.00710752 0.00351976 0 0 0.00374916 0.00757388 0.0114715 0.0154392 0.0194742 0.023573 0.0277318 0.0319461 0.0362116 0.0405236 0.0448773 0.0492668 0.0536862 0.0581295 0.0625902 0.0670618 0.071537 0.0760081 0.0804677 0.0849079 0.0893206 0.0936973 0.0980294 0.102308 0.106525 0.110671 0.114736 0.118712 0.12259 0.126361 0.130015 0.133545 0.13694 0.140193 0.143296 0.146239 0.149016 0.15162 0.154043 0.156278 0.15832 0.160162 0.161801 0.16323 0.164447 0.165447 0.166227 0.166787 0.167123 0.167236 0.167123 0.166787 0.166227 0.165447 0.164447 0.16323 0.161801 0.160162 0.15832 0.156278 0.154043 0.15162 0.149016 0.146239 0.143296 0.140193 0.13694 0.133545 0.130015 0.126361 0.12259 0.118712 0.114736 0.110671 0.106525 0.102308 0.0980294 0.0936973 0.0893206 0.0849079 0.0804677 0.0760081 0.071537 0.0670618 0.0625902 0.0581295 0.0536862 0.0492668 0.0448773 0.0405236 0.0362116 0.0319461 0.0277318 0.023573 0.0194742 0.0154392 0.0114715 0.00757388 0.00374916 0 0 0.00397631 0.00803604 0.0121764 0.0163946 0.0206875 0.0250518 0.0294831 0.0339769 0.0385285 0.043133 0.0477851 0.0524787 0.0572074 0.0619646 0.0667435 0.071537 0.076337 0.0811356 0.0859244 0.090695 0.0954385 0.100146 0.104807 0.109414 0.113955 0.118422 0.122805 0.127093 0.131277 0.135347 0.139292 0.143103 0.146771 0.150287 0.153641 0.156823 0.159827 0.162643 0.165265 0.167684 0.169894 0.171888 0.173662 0.17521 0.176528 0.177611 0.178456 0.179062 0.179427 0.179549 0.179427 0.179062 0.178456 0.177611 0.176528 0.17521 0.173662 0.171888 0.169894 0.167684 0.165265 0.162643 0.159827 0.156823 0.153641 0.150287 0.146771 0.143103 0.139292 0.135347 0.131277 0.127093 0.122805 0.118422 0.113955 0.109414 0.104807 0.100146 0.0954385 0.090695 0.0859244 0.0811356 0.076337 0.071537 0.0667435 0.0619646 0.0572074 0.0524787 0.0477851 0.043133 0.0385285 0.0339769 0.0294831 0.0250518 0.0206875 0.0163946 0.0121764 0.00803604 0.00397631 0 0 0.00420092 0.00849338 0.0128746 0.0173415 0.021891 0.0265195 0.0312226 0.0359954 0.040833 0.0457302 0.0506814 0.05568 0.0607191 0.0657917 0.0708906 0.0760081 0.0811356 0.0862644 0.0913854 0.0964897 0.101568 0.106609 0.111604 0.116542 0.121413 0.126206 0.13091 0.135515 0.14001 0.144383 0.148624 0.152722 0.156668 0.160451 0.16406 0.167486 0.17072 0.173753 0.176578 0.179184 0.181566 0.183715 0.185627 0.187297 0.188717 0.189885 0.190797 0.19145 0.191843 0.191975 0.191843 0.19145 0.190797 0.189885 0.188717 0.187297 0.185627 0.183715 0.181566 0.179184 0.176578 0.173753 0.17072 0.167486 0.16406 0.160451 0.156668 0.152722 0.148624 0.144383 0.14001 0.135515 0.13091 0.126206 0.121413 0.116542 0.111604 0.106609 0.101568 0.0964897 0.0913854 0.0862644 0.0811356 0.0760081 0.0708906 0.0657917 0.0607191 0.05568 0.0506814 0.0457302 0.040833 0.0359954 0.0312226 0.0265195 0.021891 0.0173415 0.0128746 0.00849338 0.00420092 0 0 0.00442268 0.00894528 0.0135649 0.0182784 0.0230827 0.0279741 0.0329477 0.0379987 0.0431216 0.0483112 0.0535614 0.0588653 0.0642155 0.0696045 0.0750247 0.0804677 0.0859244 0.0913854 0.0968411 0.102282 0.107697 0.113076 0.118408 0.123681 0.128885 0.134008 0.139037 0.143963 0.148771 0.153452 0.157993 0.162383 0.16661 0.170664 0.174533 0.178207 0.181675 0.184929 0.187959 0.190756 0.193312 0.195619 0.197672 0.199464 0.20099 0.202244 0.203223 0.203925 0.204347 0.204488 0.204347 0.203925 0.203223 0.202244 0.20099 0.199464 0.197672 0.195619 0.193312 0.190756 0.187959 0.184929 0.181675 0.178207 0.174533 0.170664 0.16661 0.162383 0.157993 0.153452 0.148771 0.143963 0.139037 0.134008 0.128885 0.123681 0.118408 0.113076 0.107697 0.102282 0.0968411 0.0913854 0.0859244 0.0804677 0.0750247 0.0696045 0.0642155 0.0588653 0.0535614 0.0483112 0.0431216 0.0379987 0.0329477 0.0279741 0.0230827 0.0182784 0.0135649 0.00894528 0.00442268 0 0 0.00464128 0.00939108 0.0142464 0.0192042 0.024261 0.0294132 0.0346558 0.0399834 0.0453906 0.0508717 0.0564204 0.0620293 0.0676907 0.0733964 0.0791384 0.0849079 0.090695 0.0964897 0.102282 0.10806 0.113815 0.119534 0.125205 0.130816 0.136356 0.141811 0.14717 0.152419 0.157546 0.162538 0.167383 0.172067 0.176579 0.180908 0.18504 0.188964 0.19267 0.196147 0.199386 0.202377 0.20511 0.207577 0.209773 0.21169 0.213322 0.214663 0.215711 0.216462 0.216914 0.217065 0.216914 0.216462 0.215711 0.214663 0.213322 0.21169 0.209773 0.207577 0.20511 0.202377 0.199386 0.196147 0.19267 0.188964 0.18504 0.180908 0.176579 0.172067 0.167383 0.162538 0.157546 0.152419 0.14717 0.141811 0.136356 0.130816 0.125205 0.119534 0.113815 0.10806 0.102282 0.0964897 0.090695 0.0849079 0.0791384 0.0733964 0.0676907 0.0620293 0.0564204 0.0508717 0.0453906 0.0399834 0.0346558 0.0294132 0.024261 0.0192042 0.0142464 0.00939108 0.00464128 0 0 0.00485643 0.00983017 0.0149182 0.0201173 0.0254241 0.0308348 0.0363441 0.0419465 0.0476363 0.0534075 0.0592536 0.0651667 0.0711386 0.0771607 0.0832245 0.0893206 0.0954385 0.101568 0.107697 0.113815 0.119911 0.125971 0.131983 0.137934 0.143812 0.149603 0.155292 0.160868 0.166315 0.171621 0.176772 0.181754 0.186554 0.19116 0.195558 0.199736 0.203682 0.207385 0.210835 0.214021 0.216933 0.219563 0.221903 0.223947 0.225686 0.227117 0.228233 0.229034 0.229516 0.229677 0.229516 0.229034 0.228233 0.227117 0.225686 0.223947 0.221903 0.219563 0.216933 0.214021 0.210835 0.207385 0.203682 0.199736 0.195558 0.19116 0.186554 0.181754 0.176772 0.171621 0.166315 0.160868 0.155292 0.149603 0.143812 0.137934 0.131983 0.125971 0.119911 0.113815 0.107697 0.101568 0.0954385 0.0893206 0.0832245 0.0771607 0.0711386 0.0651667 0.0592536 0.0534075 0.0476363 0.0419465 0.0363441 0.0308348 0.0254241 0.0201173 0.0149182 0.00983017 0.00485643 0 0 0.00506781 0.0102619 0.0155792 0.0210164 0.0265701 0.0322363 0.0380098 0.0438846 0.0498548 0.0559142 0.0620559 0.0682717 0.0745528 0.0808903 0.0872751 0.0936973 0.100146 0.106609 0.113076 0.119534 0.125971 0.132373 0.138727 0.14502 0.151237 0.157364 0.163387 0.16929 0.17506 0.180682 0.186141 0.191423 0.196513 0.201398 0.206064 0.210497 0.214686 0.218617 0.22228 0.225663 0.228756 0.231549 0.234035 0.236206 0.238055 0.239575 0.240761 0.241612 0.242124 0.242296 0.242124 0.241612 0.240761 0.239575 0.238055 0.236206 0.234035 0.231549 0.228756 0.225663 0.22228 0.218617 0.214686 0.210497 0.206064 0.201398 0.196513 0.191423 0.186141 0.180682 0.17506 0.16929 0.163387 0.157364 0.151237 0.14502 0.138727 0.132373 0.125971 0.119534 0.113076 0.106609 0.100146 0.0936973 0.0872751 0.0808903 0.0745528 0.0682717 0.0620559 0.0559142 0.0498548 0.0438846 0.0380098 0.0322363 0.0265701 0.0210164 0.0155792 0.0102619 0.00506781 0 0 0.00527513 0.0106856 0.0162283 0.0219 0.0276972 0.0336157 0.0396501 0.0457944 0.0520422 0.0583872 0.0648222 0.0713385 0.0779269 0.0845781 0.0912824 0.0980294 0.104807 0.111604 0.118408 0.125205 0.131983 0.138727 0.145424 0.152058 0.158615 0.165079 0.171435 0.177668 0.183761 0.1897 0.195468 0.201051 0.206432 0.211598 0.216533 0.221223 0.225655 0.229816 0.233693 0.237275 0.240549 0.243507 0.24614 0.24844 0.250398 0.252008 0.253265 0.254166 0.254709 0.25489 0.254709 0.254166 0.253265 0.252008 0.250398 0.24844 0.24614 0.243507 0.240549 0.237275 0.233693 0.229816 0.225655 0.221223 0.216533 0.211598 0.206432 0.201051 0.195468 0.1897 0.183761 0.177668 0.171435 0.165079 0.158615 0.152058 0.145424 0.138727 0.131983 0.125205 0.118408 0.111604 0.104807 0.0980294 0.0912824 0.0845781 0.0779269 0.0713385 0.0648222 0.0583872 0.0520422 0.0457944 0.0396501 0.0336157 0.0276972 0.0219 0.0162283 0.0106856 0.00527513 0 0 0.00547809 0.0111007 0.0168647 0.0227668 0.0288035 0.0349705 0.0412623 0.0476725 0.0541947 0.0608221 0.0675474 0.0743614 0.0812546 0.088217 0.0952385 0.102308 0.109414 0.116542 0.123681 0.130816 0.137934 0.14502 0.152058 0.159033 0.165929 0.17273 0.17942 0.185981 0.192398 0.198654 0.204732 0.210615 0.216289 0.221736 0.226941 0.231888 0.236564 0.240955 0.245047 0.248828 0.252285 0.255408 0.258188 0.260617 0.262685 0.264385 0.265713 0.266665 0.267239 0.26743 0.267239 0.266665 0.265713 0.264385 0.262685 0.260617 0.258188 0.255408 0.252285 0.248828 0.245047 0.240955 0.236564 0.231888 0.226941 0.221736 0.216289 0.210615 0.204732 0.198654 0.192398 0.185981 0.17942 0.17273 0.165929 0.159033 0.152058 0.14502 0.137934 0.130816 0.123681 0.116542 0.109414 0.102308 0.0952385 0.088217 0.0812546 0.0743614 0.0675474 0.0608221 0.0541947 0.0476725 0.0412623 0.0349705 0.0288035 0.0227668 0.0168647 0.0111007 0.00547809 0 0 0.00567637 0.0115065 0.0174873 0.0236154 0.0298872 0.0362985 0.0428434 0.0495156 0.0563082 0.0632144 0.0702263 0.0773346 0.0845291 0.0917995 0.0991353 0.106525 0.113955 0.121413 0.128885 0.136356 0.143812 0.151237 0.158615 0.165929 0.173163 0.1803 0.187321 0.194211 0.200951 0.207523 0.21391 0.220094 0.226059 0.231787 0.237262 0.242466 0.247386 0.252007 0.256314 0.260294 0.263934 0.267222 0.27015 0.272707 0.274885 0.276676 0.278075 0.279078 0.279682 0.279884 0.279682 0.279078 0.278075 0.276676 0.274885 0.272707 0.27015 0.267222 0.263934 0.260294 0.256314 0.252007 0.247386 0.242466 0.237262 0.231787 0.226059 0.220094 0.21391 0.207523 0.200951 0.194211 0.187321 0.1803 0.173163 0.165929 0.158615 0.151237 0.143812 0.136356 0.128885 0.121413 0.113955 0.106525 0.0991353 0.0917995 0.0845291 0.0773346 0.0702263 0.0632144 0.0563082 0.0495156 0.0428434 0.0362985 0.0298872 0.0236154 0.0174873 0.0115065 0.00567637 0 0 0.00586967 0.0119024 0.0180951 0.0244443 0.0309464 0.0375973 0.0443908 0.0513203 0.0583789 0.0655593 0.0728537 0.080252 0.0877439 0.0953184 0.102965 0.110671 0.118422 0.126206 0.134008 0.141811 0.149603 0.157364 0.165079 0.17273 0.1803 0.18777 0.195122 0.202338 0.209399 0.216286 0.22298 0.229464 0.235718 0.241726 0.247469 0.252931 0.258094 0.262943 0.267465 0.271644 0.275465 0.278919 0.281993 0.284679 0.286967 0.288849 0.290318 0.291372 0.292006 0.292218 0.292006 0.291372 0.290318 0.288849 0.286967 0.284679 0.281993 0.278919 0.275465 0.271644 0.267465 0.262943 0.258094 0.252931 0.247469 0.241726 0.235718 0.229464 0.22298 0.216286 0.209399 0.202338 0.195122 0.18777 0.1803 0.17273 0.165079 0.157364 0.149603 0.141811 0.134008 0.126206 0.118422 0.110671 0.102965 0.0953184 0.0877439 0.080252 0.0728537 0.0655593 0.0583789 0.0513203 0.0443908 0.0375973 0.0309464 0.0244443 0.0180951 0.0119024 0.00586967 0 0 0.00605771 0.0122878 0.018687 0.0252521 0.0319794 0.0388646 0.0459015 0.0530832 0.0604027 0.0678524 0.0754242 0.0831078 0.0908922 0.0987663 0.106718 0.114736 0.122805 0.13091 0.139037 0.14717 0.155292 0.163387 0.171435 0.17942 0.187321 0.195122 0.202801 0.210341 0.21772 0.224919 0.231919 0.238699 0.245242 0.251528 0.257538 0.263253 0.268658 0.273736 0.27847 0.282846 0.286849 0.290466 0.293687 0.296501 0.298898 0.30087 0.302409 0.303513 0.304178 0.304401 0.304178 0.303513 0.302409 0.30087 0.298898 0.296501 0.293687 0.290466 0.286849 0.282846 0.27847 0.273736 0.268658 0.263253 0.257538 0.251528 0.245242 0.238699 0.231919 0.224919 0.21772 0.210341 0.202801 0.195122 0.187321 0.17942 0.171435 0.163387 0.155292 0.14717 0.139037 0.13091 0.122805 0.114736 0.106718 0.0987663 0.0908922 0.0831078 0.0754242 0.0678524 0.0604027 0.0530832 0.0459015 0.0388646 0.0319794 0.0252521 0.018687 0.0122878 0.00605771 0 0 0.00624021 0.012662 0.0192622 0.0260375 0.0329842 0.0400981 0.0473727 0.054801 0.0623757 0.0700891 0.0779328 0.0858961 0.0939676 0.102136 0.110388 0.118712 0.127093 0.135515 0.143963 0.152419 0.160868 0.16929 0.177668 0.185981 0.194211 0.202338 0.210341 0.218199 0.225893 0.233401 0.240702 0.247777 0.254604 0.261165 0.267439 0.273407 0.279051 0.284354 0.2893 0.293871 0.298053 0.301833 0.305199 0.30814 0.310645 0.312705 0.314315 0.315469 0.316164 0.316396 0.316164 0.315469 0.314315 0.312705 0.310645 0.30814 0.305199 0.301833 0.298053 0.293871 0.2893 0.284354 0.279051 0.273407 0.267439 0.261165 0.254604 0.247777 0.240702 0.233401 0.225893 0.218199 0.210341 0.202338 0.194211 0.185981 0.177668 0.16929 0.160868 0.152419 0.143963 0.135515 0.127093 0.118712 0.110388 0.102136 0.0939676 0.0858961 0.0779328 0.0700891 0.0623757 0.054801 0.0473727 0.0400981 0.0329842 0.0260375 0.0192622 0.012662 0.00624021 0 0 0.00641686 0.0130245 0.0198197 0.0267991 0.0339592 0.0412956 0.0488017 0.0564704 0.0642941 0.0722649 0.0803742 0.0886109 0.0969632 0.105419 0.113966 0.12259 0.131277 0.14001 0.148771 0.157546 0.166315 0.17506 0.183761 0.192398 0.200951 0.209399 0.21772 0.225893 0.233896 0.241708 0.249307 0.256671 0.26378 0.270612 0.277147 0.283363 0.289243 0.294769 0.299923 0.304687 0.309046 0.312986 0.316496 0.319562 0.322174 0.324323 0.326001 0.327204 0.327929 0.328171 0.327929 0.327204 0.326001 0.324323 0.322174 0.319562 0.316496 0.312986 0.309046 0.304687 0.299923 0.294769 0.289243 0.283363 0.277147 0.270612 0.26378 0.256671 0.249307 0.241708 0.233896 0.225893 0.21772 0.209399 0.200951 0.192398 0.183761 0.17506 0.166315 0.157546 0.148771 0.14001 0.131277 0.12259 0.113966 0.105419 0.0969632 0.0886109 0.0803742 0.0722649 0.0642941 0.0564704 0.0488017 0.0412956 0.0339592 0.0267991 0.0198197 0.0130245 0.00641686 0 0 0.00658739 0.0133746 0.0203584 0.0275356 0.0349025 0.0424547 0.0501857 0.0580879 0.0661538 0.0743752 0.0827431 0.0912463 0.0998724 0.108609 0.117443 0.126361 0.135347 0.144383 0.153452 0.162538 0.171621 0.180682 0.1897 0.198654 0.207523 0.216286 0.224919 0.233401 0.241708 0.249819 0.25771 0.265359 0.272743 0.279842 0.286633 0.293094 0.299206 0.304951 0.310309 0.315264 0.319797 0.323895 0.327545 0.330734 0.333452 0.335687 0.337433 0.338685 0.339439 0.339691 0.339439 0.338685 0.337433 0.335687 0.333452 0.330734 0.327545 0.323895 0.319797 0.315264 0.310309 0.304951 0.299206 0.293094 0.286633 0.279842 0.272743 0.265359 0.25771 0.249819 0.241708 0.233401 0.224919 0.216286 0.207523 0.198654 0.1897 0.180682 0.171621 0.162538 0.153452 0.144383 0.135347 0.126361 0.117443 0.108609 0.0998724 0.0912463 0.0827431 0.0743752 0.0661538 0.0580879 0.0501857 0.0424547 0.0349025 0.0275356 0.0203584 0.0133746 0.00658739 0 0 0.00675151 0.0137117 0.0208775 0.0282456 0.0358123 0.0435734 0.0515219 0.0596504 0.067951 0.0764154 0.0850344 0.0937964 0.102689 0.111698 0.120812 0.130015 0.139292 0.148624 0.157993 0.167383 0.176772 0.186141 0.195468 0.204732 0.21391 0.22298 0.231919 0.240702 0.249307 0.25771 0.265887 0.273814 0.281469 0.288828 0.295869 0.30257 0.30891 0.314869 0.320428 0.325569 0.330272 0.334525 0.338313 0.341623 0.344444 0.346764 0.348576 0.349876 0.350659 0.35092 0.350659 0.349876 0.348576 0.346764 0.344444 0.341623 0.338313 0.334525 0.330272 0.325569 0.320428 0.314869 0.30891 0.30257 0.295869 0.288828 0.281469 0.273814 0.265887 0.25771 0.249307 0.240702 0.231919 0.22298 0.21391 0.204732 0.195468 0.186141 0.176772 0.167383 0.157993 0.148624 0.139292 0.130015 0.120812 0.111698 0.102689 0.0937964 0.0850344 0.0764154 0.067951 0.0596504 0.0515219 0.04