<?xml version="1.0"?> 
<VTKFile type="StructuredGrid" version="0.1"> 
<StructuredGrid WholeExtent="0 100 0 100 0 0"> 
<Piece Extent="0 100 0 100 0 0"> 
<PointData Scalars="u">
<DataArray type="Float32" Name="u" format="ascii" NumberOfComponents="1"> 
0 0 0 0 0 0 0 0 0 0 0 0 0 0 0 0 0 0 0 0 0 0 0 0 0 0 0 0 0 0 0 0 0 0 0 0 0 0 0 0 0 0 0 0 0 0 0 0 0 0 0 0 0 0 0 0 0 0 0 0 0 0 0 0 0 0 0 0 0 0 0 0 0 0 0 0 0 0 0 0 0 0 0 0 0 0 0 0 0 0 0 0 0 0 0 0 0 0 0 0 0 0 0.00588924 0.00928551 0.0101888 0.00927285 0.00872718 0.00872022 0.00920853 0.00962723 0.00980251 0.00973437 0.00959151 0.00954262 0.0095877 0.00969584 0.00976654 0.00979205 0.00977584 0.00976276 0.00976662 0.00978742 0.00981228 0.00982834 0.0098356 0.00983663 0.00983982 0.00984582 0.00985436 0.00986204 0.00986783 0.00987171 0.0098748 0.0098782 0.0098819 0.00988571 0.00988904 0.00989184 0.00989414 0.00989623 0.00989823 0.00990013 0.00990186 0.00990336 0.00990461 0.00990565 0.00990654 0.00990727 0.00990785 0.00990827 0.00990852 0.00990861 0.00990852 0.00990827 0.00990785 0.00990727 0.00990654 0.00990565 0.00990461 0.00990336 0.00990186 0.00990013 0.00989823 0.00989623 0.00989414 0.00989184 0.00988904 0.00988571 0.0098819 0.0098782 0.0098748 0.00987171 0.00986783 0.00986204 0.00985436 0.00984582 0.00983982 0.00983663 0.0098356 0.00982834 0.00981228 0.00978742 0.00976662 0.00976276 0.00977584 0.00979205 0.00976654 0.00969584 0.0095877 0.00954262 0.00959151 0.00973437 0.00980251 0.00962723 0.00920853 0.00872022 0.00872718 0.00927285 0.0101888 0.00928551 0.00588924 0 0 0.00928551 0.0149571 0.0170148 0.0163945 0.0161375 0.0164778 0.0173625 0.0181047 0.0184931 0.0185275 0.0184407 0.018465 0.0186006 0.0188078 0.0189581 0.0190416 0.0190629 0.019084 0.0191238 0.0191823 0.0192431 0.0192898 0.0193225 0.0193446 0.0193679 0.0193934 0.0194206 0.0194455 0.0194667 0.0194842 0.0194997 0.0195147 0.0195292 0.019543 0.0195555 0.0195666 0.0195763 0.0195851 0.0195933 0.0196007 0.0196074 0.0196133 0.0196183 0.0196226 0.0196262 0.0196291 0.0196314 0.0196331 0.0196341 0.0196344 0.0196341 0.0196331 0.0196314 0.0196291 0.0196262 0.0196226 0.0196183 0.0196133 0.0196074 0.0196007 0.0195933 0.0195851 0.0195763 0.0195666 0.0195555 0.019543 0.0195292 0.0195147 0.0194997 0.0194842 0.0194667 0.0194455 0.0194206 0.0193934 0.0193679 0.0193446 0.0193225 0.0192898 0.0192431 0.0191823 0.0191238 0.019084 0.0190629 0.0190416 0.0189581 0.0188078 0.0186006 0.018465 0.0184407 0.0185275 0.0184931 0.0181047 0.0173625 0.0164778 0.0161375 0.0163945 0.0170148 0.0149571 0.00928551 0 0 0.0101888 0.0170148 0.0204781 0.0213649 0.0222309 0.0232726 0.0244619 0.0254325 0.0260717 0.0263795 0.0265475 0.0267672 0.0270387 0.027336 0.0275748 0.0277486 0.0278613 0.0279637 0.0280715 0.0281847 0.0282925 0.0283845 0.0284606 0.0285238 0.0285843 0.0286427 0.0286989 0.0287505 0.0287967 0.0288376 0.0288747 0.0289094 0.0289418 0.0289719 0.0289993 0.0290242 0.0290465 0.0290667 0.0290852 0.0291018 0.0291167 0.0291298 0.0291411 0.0291508 0.029159 0.0291656 0.0291708 0.0291744 0.0291766 0.0291774 0.0291766 0.0291744 0.0291708 0.0291656 0.029159 0.0291508 0.0291411 0.0291298 0.0291167 0.0291018 0.0290852 0.0290667 0.0290465 0.0290242 0.0289993 0.0289719 0.0289418 0.0289094 0.0288747 0.0288376 0.0287967 0.0287505 0.0286989 0.0286427 0.0285843 0.0285238 0.0284606 0.0283845 0.0282925 0.0281847 0.0280715 0.0279637 0.0278613 0.0277486 0.0275748 0.027336 0.0270387 0.0267672 0.0265475 0.0263795 0.0260717 0.0254325 0.0244619 0.0232726 0.0222309 0.0213649 0.0204781 0.0170148 0.0101888 0 0 0.00927285 0.0163945 0.0213649 0.0245404 0.0270787 0.0290689 0.030529 0.0316926 0.0326317 0.0333463 0.0339187 0.0344312 0.0348838 0.035279 0.0356247 0.0359215 0.036171 0.036395 0.0366002 0.0367867 0.0369558 0.0371089 0.0372461 0.0373689 0.0374825 0.0375871 0.037683 0.0377713 0.0378524 0.0379263 0.037994 0.0380566 0.0381141 0.0381667 0.038215 0.0382591 0.0382991 0.0383354 0.0383683 0.0383978 0.0384241 0.0384473 0.0384676 0.0384849 0.0384994 0.0385113 0.0385204 0.0385269 0.0385308 0.0385321 0.0385308 0.0385269 0.0385204 0.0385113 0.0384994 0.0384849 0.0384676 0.0384473 0.0384241 0.0383978 0.0383683 0.0383354 0.0382991 0.0382591 0.038215 0.0381667 0.0381141 0.0380566 0.037994 0.0379263 0.0378524 0.0377713 0.037683 0.0375871 0.0374825 0.0373689 0.0372461 0.0371089 0.0369558 0.0367867 0.0366002 0.036395 0.036171 0.0359215 0.0356247 0.035279 0.0348838 0.0344312 0.0339187 0.0333463 0.0326317 0.0316926 0.030529 0.0290689 0.0270787 0.0245404 0.0213649 0.0163945 0.00927285 0 0 0.00872718 0.0161375 0.0222309 0.0270787 0.0309125 0.0337501 0.0356362 0.0371521 0.0384767 0.0396101 0.0405759 0.0413982 0.0420768 0.0426329 0.0431348 0.0435878 0.0439924 0.0443554 0.044679 0.0449631 0.0452174 0.0454519 0.0456665 0.045862 0.0460415 0.0462053 0.0463535 0.0464902 0.0466165 0.0467324 0.0468389 0.0469372 0.0470271 0.047109 0.0471845 0.0472535 0.0473162 0.0473732 0.0474247 0.0474708 0.0475119 0.0475483 0.04758 0.0476071 0.0476299 0.0476484 0.0476627 0.0476729 0.047679 0.047681 0.047679 0.0476729 0.0476627 0.0476484 0.0476299 0.0476071 0.04758 0.0475483 0.0475119 0.0474708 0.0474247 0.0473732 0.0473162 0.0472535 0.0471845 0.047109 0.0470271 0.0469372 0.0468389 0.0467324 0.0466165 0.0464902 0.0463535 0.0462053 0.0460415 0.045862 0.0456665 0.0454519 0.0452174 0.0449631 0.044679 0.0443554 0.0439924 0.0435878 0.0431348 0.0426329 0.0420768 0.0413982 0.0405759 0.0396101 0.0384767 0.0371521 0.0356362 0.0337501 0.0309125 0.0270787 0.0222309 0.0161375 0.00872718 0 0 0.00872022 0.0164778 0.0232726 0.0290689 0.0337501 0.0373071 0.039789 0.0418314 0.04363 0.0451848 0.046521 0.0476637 0.0486132 0.0493973 0.0501071 0.0507496 0.0513255 0.0518432 0.0523053 0.0527118 0.0530764 0.0534127 0.0537208 0.0540018 0.0542599 0.0544954 0.0547088 0.0549056 0.0550876 0.0552546 0.0554081 0.0555497 0.0556793 0.0557976 0.0559064 0.0560059 0.0560963 0.0561785 0.0562529 0.0563195 0.0563787 0.0564312 0.056477 0.0565161 0.056549 0.0565758 0.0565964 0.056611 0.0566198 0.0566228 0.0566198 0.056611 0.0565964 0.0565758 0.056549 0.0565161 0.056477 0.0564312 0.0563787 0.0563195 0.0562529 0.0561785 0.0560963 0.0560059 0.0559064 0.0557976 0.0556793 0.0555497 0.0554081 0.0552546 0.0550876 0.0549056 0.0547088 0.0544954 0.0542599 0.0540018 0.0537208 0.0534127 0.0530764 0.0527118 0.0523053 0.0518432 0.0513255 0.0507496 0.0501071 0.0493973 0.0486132 0.0476637 0.046521 0.0451848 0.04363 0.0418314 0.039789 0.0373071 0.0337501 0.0290689 0.0232726 0.0164778 0.00872022 0 0 0.00920853 0.0173625 0.0244619 0.030529 0.0356362 0.039789 0.0430197 0.0457472 0.0481004 0.0500792 0.0517651 0.0532395 0.0545024 0.0555779 0.0565448 0.0574091 0.0581727 0.0588609 0.0594815 0.0600346 0.0605335 0.0609917 0.0614091 0.0617884 0.0621377 0.0624576 0.0627488 0.0630174 0.0632652 0.0634923 0.063701 0.0638936 0.0640702 0.0642315 0.0643799 0.0645156 0.0646387 0.0647507 0.0648521 0.0649428 0.0650236 0.0650952 0.0651576 0.0652109 0.0652558 0.0652923 0.0653204 0.0653404 0.0653524 0.0653564 0.0653524 0.0653404 0.0653204 0.0652923 0.0652558 0.0652109 0.0651576 0.0650952 0.0650236 0.0649428 0.0648521 0.0647507 0.0646387 0.0645156 0.0643799 0.0642315 0.0640702 0.0638936 0.063701 0.0634923 0.0632652 0.0630174 0.0627488 0.0624576 0.0621377 0.0617884 0.0614091 0.0609917 0.0605335 0.0600346 0.0594815 0.0588609 0.0581727 0.0574091 0.0565448 0.0555779 0.0545024 0.0532395 0.0517651 0.0500792 0.0481004 0.0457472 0.0430197 0.039789 0.0356362 0.030529 0.0244619 0.0173625 0.00920853 0 0 0.00962723 0.0181047 0.0254325 0.0316926 0.0371521 0.0418314 0.0457472 0.0491152 0.0520015 0.0544064 0.0564559 0.0582764 0.0598677 0.0612504 0.062491 0.0635946 0.0645643 0.0654408 0.0662367 0.066952 0.0675999 0.068194 0.0687341 0.0692242 0.0696764 0.0700918 0.0704709 0.0708207 0.0711433 0.0714388 0.0717103 0.0719612 0.0721914 0.0724018 0.0725953 0.0727723 0.0729329 0.073079 0.0732112 0.0733297 0.0734352 0.0735287 0.0736101 0.0736797 0.0737383 0.073786 0.0738227 0.0738488 0.0738645 0.0738697 0.0738645 0.0738488 0.0738227 0.073786 0.0737383 0.0736797 0.0736101 0.0735287 0.0734352 0.0733297 0.0732112 0.073079 0.0729329 0.0727723 0.0725953 0.0724018 0.0721914 0.0719612 0.0717103 0.0714388 0.0711433 0.0708207 0.0704709 0.0700918 0.0696764 0.0692242 0.0687341 0.068194 0.0675999 0.066952 0.0662367 0.0654408 0.0645643 0.0635946 0.062491 0.0612504 0.0598677 0.0582764 0.0564559 0.0544064 0.0520015 0.0491152 0.0457472 0.0418314 0.0371521 0.0316926 0.0254325 0.0181047 0.00962723 0 0 0.00980251 0.0184931 0.0260717 0.0326317 0.0384767 0.04363 0.0481004 0.0520015 0.0553684 0.0582011 0.0606388 0.0628208 0.0647471 0.0664378 0.0679587 0.0693147 0.0705096 0.0715929 0.0725798 0.0734701 0.074279 0.0750211 0.0756964 0.0763098 0.0768766 0.0773979 0.0778743 0.0783142 0.0787201 0.079092 0.0794339 0.07975 0.0800401 0.0803055 0.0805497 0.080773 0.0809756 0.0811601 0.0813271 0.0814767 0.08161 0.081728 0.0818309 0.0819189 0.0819929 0.0820531 0.0820995 0.0821325 0.0821524 0.082159 0.0821524 0.0821325 0.0820995 0.0820531 0.0819929 0.0819189 0.0818309 0.081728 0.08161 0.0814767 0.0813271 0.0811601 0.0809756 0.080773 0.0805497 0.0803055 0.0800401 0.07975 0.0794339 0.079092 0.0787201 0.0783142 0.0778743 0.0773979 0.0768766 0.0763098 0.0756964 0.0750211 0.074279 0.0734701 0.0725798 0.0715929 0.0705096 0.0693147 0.0679587 0.0664378 0.0647471 0.0628208 0.0606388 0.0582011 0.0553684 0.0520015 0.0481004 0.04363 0.0384767 0.0326317 0.0260717 0.0184931 0.00980251 0 0 0.00973437 0.0185275 0.0263795 0.0333463 0.0396101 0.0451848 0.0500792 0.0544064 0.0582011 0.0614633 0.0643136 0.0668727 0.0691404 0.0711403 0.072948 0.0745695 0.0760088 0.0773172 0.0785107 0.0795892 0.0805707 0.081473 0.0822961 0.0830454 0.0837382 0.0843758 0.084959 0.0854979 0.0859955 0.0864519 0.0868718 0.08726 0.0876166 0.0879427 0.088243 0.0885177 0.088767 0.088994 0.0891996 0.0893838 0.0895479 0.0896933 0.08982 0.0899283 0.0900196 0.0900937 0.0901509 0.0901916 0.090216 0.0902241 0.090216 0.0901916 0.0901509 0.0900937 0.0900196 0.0899283 0.08982 0.0896933 0.0895479 0.0893838 0.0891996 0.088994 0.088767 0.0885177 0.088243 0.0879427 0.0876166 0.08726 0.0868718 0.0864519 0.0859955 0.0854979 0.084959 0.0843758 0.0837382 0.0830454 0.0822961 0.081473 0.0805707 0.0795892 0.0785107 0.0773172 0.0760088 0.0745695 0.072948 0.0711403 0.0691404 0.0668727 0.0643136 0.0614633 0.0582011 0.0544064 0.0500792 0.0451848 0.0396101 0.0333463 0.0263795 0.0185275 0.00973437 0 0 0.00959151 0.0184407 0.0265475 0.0339187 0.0405759 0.046521 0.0517651 0.0564559 0.0606388 0.0643136 0.0675717 0.0705043 0.0731112 0.0754195 0.077517 0.0794105 0.0811038 0.0826476 0.0840575 0.0853335 0.0864969 0.0875687 0.0885491 0.0894438 0.0902716 0.091034 0.0917319 0.0923772 0.0929737 0.0935214 0.0940258 0.0944922 0.0949207 0.0953129 0.0956741 0.0960046 0.0963047 0.0965781 0.0968257 0.0970475 0.0972453 0.0974205 0.0975732 0.0977038 0.0978138 0.0979032 0.0979721 0.0980211 0.0980506 0.0980604 0.0980506 0.0980211 0.0979721 0.0979032 0.0978138 0.0977038 0.0975732 0.0974205 0.0972453 0.0970475 0.0968257 0.0965781 0.0963047 0.0960046 0.0956741 0.0953129 0.0949207 0.0944922 0.0940258 0.0935214 0.0929737 0.0923772 0.0917319 0.091034 0.0902716 0.0894438 0.0885491 0.0875687 0.0864969 0.0853335 0.0840575 0.0826476 0.0811038 0.0794105 0.077517 0.0754195 0.0731112 0.0705043 0.0675717 0.0643136 0.0606388 0.0564559 0.0517651 0.046521 0.0405759 0.0339187 0.0265475 0.0184407 0.00959151 0 0 0.00954262 0.018465 0.0267672 0.0344312 0.0413982 0.0476637 0.0532395 0.0582764 0.0628208 0.0668727 0.0705043 0.0737875 0.0767225 0.0793374 0.0817239 0.083889 0.0858367 0.0876178 0.089248 0.0907274 0.0920793 0.0933274 0.0944714 0.0955178 0.096487 0.0973806 0.0981996 0.0989577 0.0996591 0.100304 0.100898 0.101447 0.101953 0.102415 0.102842 0.103232 0.103587 0.10391 0.104202 0.104465 0.104698 0.104906 0.105086 0.105241 0.105371 0.105477 0.105558 0.105617 0.105651 0.105663 0.105651 0.105617 0.105558 0.105477 0.105371 0.105241 0.105086 0.104906 0.104698 0.104465 0.104202 0.10391 0.103587 0.103232 0.102842 0.102415 0.101953 0.101447 0.100898 0.100304 0.0996591 0.0989577 0.0981996 0.0973806 0.096487 0.0955178 0.0944714 0.0933274 0.0920793 0.0907274 0.089248 0.0876178 0.0858367 0.083889 0.0817239 0.0793374 0.0767225 0.0737875 0.0705043 0.0668727 0.0628208 0.0582764 0.0532395 0.0476637 0.0413982 0.0344312 0.0267672 0.018465 0.00954262 0 0 0.0095877 0.0186006 0.0270387 0.0348838 0.0420768 0.0486132 0.0545024 0.0598677 0.0647471 0.0691404 0.0731112 0.0767225 0.0799745 0.082894 0.0855687 0.0880052 0.0902075 0.0922279 0.0940824 0.0957709 0.0973181 0.0987488 0.100063 0.101267 0.102384 0.103416 0.104362 0.105239 0.106051 0.106799 0.107488 0.108126 0.108713 0.10925 0.109746 0.1102 0.110613 0.110989 0.111329 0.111635 0.111908 0.112149 0.11236 0.11254 0.112691 0.112815 0.11291 0.112978 0.113018 0.113032 0.113018 0.112978 0.11291 0.112815 0.112691 0.11254 0.11236 0.112149 0.111908 0.111635 0.111329 0.110989 0.110613 0.1102 0.109746 0.10925 0.108713 0.108126 0.107488 0.106799 0.106051 0.105239 0.104362 0.103416 0.102384 0.101267 0.100063 0.0987488 0.0973181 0.0957709 0.0940824 0.0922279 0.0902075 0.0880052 0.0855687 0.082894 0.0799745 0.0767225 0.0731112 0.0691404 0.0647471 0.0598677 0.0545024 0.0486132 0.0420768 0.0348838 0.0270387 0.0186006 0.0095877 0 0 0.00969584 0.0188078 0.027336 0.035279 0.0426329 0.0493973 0.0555779 0.0612504 0.0664378 0.0711403 0.0754195 0.0793374 0.082894 0.0861132 0.0890727 0.0917783 0.0942344 0.0964947 0.0985757 0.100477 0.102225 0.103844 0.105333 0.106701 0.107971 0.109146 0.110226 0.111227 0.112155 0.11301 0.113799 0.11453 0.115203 0.11582 0.116388 0.11691 0.117384 0.117816 0.118208 0.118559 0.118872 0.11915 0.119393 0.1196 0.119775 0.119917 0.120026 0.120104 0.120151 0.120166 0.120151 0.120104 0.120026 0.119917 0.119775 0.1196 0.119393 0.11915 0.118872 0.118559 0.118208 0.117816 0.117384 0.11691 0.116388 0.11582 0.115203 0.11453 0.113799 0.11301 0.112155 0.111227 0.110226 0.109146 0.107971 0.106701 0.105333 0.103844 0.102225 0.100477 0.0985757 0.0964947 0.0942344 0.0917783 0.0890727 0.0861132 0.082894 0.0793374 0.0754195 0.0711403 0.0664378 0.0612504 0.0555779 0.0493973 0.0426329 0.035279 0.027336 0.0188078 0.00969584 0 0 0.00976654 0.0189581 0.0275748 0.0356247 0.0431348 0.0501071 0.0565448 0.062491 0.0679587 0.072948 0.077517 0.0817239 0.0855687 0.0890727 0.0923052 0.0952716 0.0979761 0.100473 0.102778 0.104891 0.106839 0.108646 0.110312 0.111846 0.113272 0.114592 0.115808 0.116937 0.117984 0.118949 0.119841 0.120668 0.12143 0.122129 0.122774 0.123365 0.123903 0.124393 0.124838 0.125237 0.125593 0.125909 0.126184 0.12642 0.126619 0.12678 0.126905 0.126994 0.127047 0.127064 0.127047 0.126994 0.126905 0.12678 0.126619 0.12642 0.126184 0.125909 0.125593 0.125237 0.124838 0.124393 0.123903 0.123365 0.122774 0.122129 0.12143 0.120668 0.119841 0.118949 0.117984 0.116937 0.115808 0.114592 0.113272 0.111846 0.110312 0.108646 0.106839 0.104891 0.102778 0.100473 0.0979761 0.0952716 0.0923052 0.0890727 0.0855687 0.0817239 0.077517 0.072948 0.0679587 0.062491 0.0565448 0.0501071 0.0431348 0.0356247 0.0275748 0.0189581 0.00976654 0 0 0.00979205 0.0190416 0.0277486 0.0359215 0.0435878 0.0507496 0.0574091 0.0635946 0.0693147 0.0745695 0.0794105 0.083889 0.0880052 0.0917783 0.0952716 0.0984898 0.101437 0.104166 0.106692 0.109016 0.111163 0.113159 0.115003 0.116704 0.118287 0.119756 0.121111 0.12237 0.123539 0.124618 0.125616 0.126541 0.127395 0.128179 0.128902 0.129566 0.13017 0.130721 0.131221 0.131669 0.13207 0.132425 0.132735 0.133 0.133224 0.133406 0.133546 0.133646 0.133706 0.133726 0.133706 0.133646 0.133546 0.133406 0.133224 0.133 0.132735 0.132425 0.13207 0.131669 0.131221 0.130721 0.13017 0.129566 0.128902 0.128179 0.127395 0.126541 0.125616 0.124618 0.123539 0.12237 0.121111 0.119756 0.118287 0.116704 0.115003 0.113159 0.111163 0.109016 0.106692 0.104166 0.101437 0.0984898 0.0952716 0.0917783 0.0880052 0.083889 0.0794105 0.0745695 0.0693147 0.0635946 0.0574091 0.0507496 0.0435878 0.0359215 0.0277486 0.0190416 0.00979205 0 0 0.00977584 0.0190629 0.0278613 0.036171 0.0439924 0.0513255 0.0581727 0.0645643 0.0705096 0.0760088 0.0811038 0.0858367 0.0902075 0.0942344 0.0979761 0.101437 0.104621 0.107578 0.110322 0.112854 0.1152 0.117384 0.119407 0.121277 0.123021 0.12464 0.126136 0.127528 0.128821 0.130017 0.131124 0.132151 0.133099 0.13397 0.134774 0.135513 0.136185 0.136799 0.137356 0.137856 0.138303 0.138699 0.139045 0.139341 0.13959 0.139793 0.13995 0.140061 0.140128 0.140151 0.140128 0.140061 0.13995 0.139793 0.13959 0.139341 0.139045 0.138699 0.138303 0.137856 0.137356 0.136799 0.136185 0.135513 0.134774 0.13397 0.133099 0.132151 0.131124 0.130017 0.128821 0.127528 0.126136 0.12464 0.123021 0.121277 0.119407 0.117384 0.1152 0.112854 0.110322 0.107578 0.104621 0.101437 0.0979761 0.0942344 0.0902075 0.0858367 0.0811038 0.0760088 0.0705096 0.0645643 0.0581727 0.0513255 0.0439924 0.036171 0.0278613 0.0190629 0.00977584 0 0 0.00976276 0.019084 0.0279637 0.036395 0.0443554 0.0518432 0.0588609 0.0654408 0.0715929 0.0773172 0.0826476 0.0876178 0.0922279 0.0964947 0.100473 0.104166 0.107578 0.110755 0.113711 0.116447 0.118988 0.121358 0.123558 0.125596 0.127498 0.129267 0.130905 0.13243 0.13385 0.135163 0.136379 0.137509 0.138553 0.139513 0.1404 0.141214 0.141957 0.142635 0.14325 0.143803 0.144297 0.144735 0.145117 0.145445 0.145721 0.145945 0.146119 0.146242 0.146316 0.146341 0.146316 0.146242 0.146119 0.145945 0.145721 0.145445 0.145117 0.144735 0.144297 0.143803 0.14325 0.142635 0.141957 0.141214 0.1404 0.139513 0.138553 0.137509 0.136379 0.135163 0.13385 0.13243 0.130905 0.129267 0.127498 0.125596 0.123558 0.121358 0.118988 0.116447 0.113711 0.110755 0.107578 0.104166 0.100473 0.0964947 0.0922279 0.0876178 0.0826476 0.0773172 0.0715929 0.0654408 0.0588609 0.0518432 0.0443554 0.036395 0.0279637 0.019084 0.00976276 0 0 0.00976662 0.0191238 0.0280715 0.0366002 0.044679 0.0523053 0.0594815 0.0662367 0.0725798 0.0785107 0.0840575 0.089248 0.0940824 0.0985757 0.102778 0.106692 0.110322 0.113711 0.116873 0.119807 0.122538 0.12509 0.127464 0.129668 0.131728 0.133647 0.135426 0.137084 0.138629 0.14006 0.141388 0.142621 0.143762 0.144812 0.145782 0.146673 0.147487 0.14823 0.148904 0.149511 0.150052 0.150533 0.150953 0.151313 0.151616 0.151862 0.152053 0.152188 0.15227 0.152297 0.15227 0.152188 0.152053 0.151862 0.151616 0.151313 0.150953 0.150533 0.150052 0.149511 0.148904 0.14823 0.147487 0.146673 0.145782 0.144812 0.143762 0.142621 0.141388 0.14006 0.138629 0.137084 0.135426 0.133647 0.131728 0.129668 0.127464 0.12509 0.122538 0.119807 0.116873 0.113711 0.110322 0.106692 0.102778 0.0985757 0.0940824 0.089248 0.0840575 0.0785107 0.0725798 0.0662367 0.0594815 0.0523053 0.044679 0.0366002 0.0280715 0.0191238 0.00976662 0 0 0.00978742 0.0191823 0.0281847 0.0367867 0.0449631 0.0527118 0.0600346 0.066952 0.0734701 0.0795892 0.0853335 0.0907274 0.0957709 0.100477 0.104891 0.109016 0.112854 0.116447 0.119807 0.122934 0.125851 0.128582 0.131127 0.133495 0.135711 0.137778 0.139698 0.14149 0.14316 0.14471 0.146148 0.147487 0.148724 0.149865 0.15092 0.15189 0.152775 0.153584 0.154319 0.154979 0.15557 0.156094 0.156552 0.156945 0.157275 0.157545 0.157752 0.157901 0.157989 0.158019 0.157989 0.157901 0.157752 0.157545 0.157275 0.156945 0.156552 0.156094 0.15557 0.154979 0.154319 0.153584 0.152775 0.15189 0.15092 0.149865 0.148724 0.147487 0.146148 0.14471 0.14316 0.14149 0.139698 0.137778 0.135711 0.133495 0.131127 0.128582 0.125851 0.122934 0.119807 0.116447 0.112854 0.109016 0.104891 0.100477 0.0957709 0.0907274 0.0853335 0.0795892 0.0734701 0.066952 0.0600346 0.0527118 0.0449631 0.0367867 0.0281847 0.0191823 0.00978742 0 0 0.00981228 0.0192431 0.0282925 0.0369558 0.0452174 0.0530764 0.0605335 0.0675999 0.074279 0.0805707 0.0864969 0.0920793 0.0973181 0.102225 0.106839 0.111163 0.1152 0.118988 0.122538 0.125851 0.128948 0.131854 0.134566 0.137094 0.139464 0.141678 0.143736 0.145661 0.147456 0.149124 0.150673 0.152116 0.153451 0.154683 0.155823 0.156871 0.157828 0.158704 0.159499 0.160215 0.160855 0.161423 0.161919 0.162345 0.162704 0.162996 0.163221 0.163382 0.163478 0.16351 0.163478 0.163382 0.163221 0.162996 0.162704 0.162345 0.161919 0.161423 0.160855 0.160215 0.159499 0.158704 0.157828 0.156871 0.155823 0.154683 0.153451 0.152116 0.150673 0.149124 0.147456 0.145661 0.143736 0.141678 0.139464 0.137094 0.134566 0.131854 0.128948 0.125851 0.122538 0.118988 0.1152 0.111163 0.106839 0.102225 0.0973181 0.0920793 0.0864969 0.0805707 0.074279 0.0675999 0.0605335 0.0530764 0.0452174 0.0369558 0.0282925 0.0192431 0.00981228 0 0 0.00982834 0.0192898 0.0283845 0.0371089 0.0454519 0.0534127 0.0609917 0.068194 0.0750211 0.081473 0.0875687 0.0933274 0.0987488 0.103844 0.108646 0.113159 0.117384 0.121358 0.12509 0.128582 0.131854 0.134927 0.137802 0.140486 0.143006 0.145363 0.147558 0.149612 0.151531 0.153315 0.154974 0.15652 0.157952 0.159274 0.160498 0.161625 0.162654 0.163596 0.164452 0.165223 0.165912 0.166524 0.167059 0.167518 0.167905 0.168219 0.168463 0.168636 0.16874 0.168775 0.16874 0.168636 0.168463 0.168219 0.167905 0.167518 0.167059 0.166524 0.165912 0.165223 0.164452 0.163596 0.162654 0.161625 0.160498 0.159274 0.157952 0.15652 0.154974 0.153315 0.151531 0.149612 0.147558 0.145363 0.143006 0.140486 0.137802 0.134927 0.131854 0.128582 0.12509 0.121358 0.117384 0.113159 0.108646 0.103844 0.0987488 0.0933274 0.0875687 0.081473 0.0750211 0.068194 0.0609917 0.0534127 0.0454519 0.0371089 0.0283845 0.0192898 0.00982834 0 0 0.0098356 0.0193225 0.0284606 0.0372461 0.0456665 0.0537208 0.0614091 0.0687341 0.0756964 0.0822961 0.0885491 0.0944714 0.100063 0.105333 0.110312 0.115003 0.119407 0.123558 0.127464 0.131127 0.134566 0.137802 0.140834 0.143671 0.146337 0.148833 0.151162 0.153344 0.155384 0.157283 0.159051 0.160699 0.162227 0.163639 0.164947 0.166151 0.167253 0.168261 0.169177 0.170003 0.170741 0.171397 0.171971 0.172463 0.172878 0.173216 0.173477 0.173663 0.173774 0.173811 0.173774 0.173663 0.173477 0.173216 0.172878 0.172463 0.171971 0.171397 0.170741 0.170003 0.169177 0.168261 0.167253 0.166151 0.164947 0.163639 0.162227 0.160699 0.159051 0.157283 0.155384 0.153344 0.151162 0.148833 0.146337 0.143671 0.140834 0.137802 0.134566 0.131127 0.127464 0.123558 0.119407 0.115003 0.110312 0.105333 0.100063 0.0944714 0.0885491 0.0822961 0.0756964 0.0687341 0.0614091 0.0537208 0.0456665 0.0372461 0.0284606 0.0193225 0.0098356 0 0 0.00983663 0.0193446 0.0285238 0.0373689 0.045862 0.0540018 0.0617884 0.0692242 0.0763098 0.0830454 0.0894438 0.0955178 0.101267 0.106701 0.111846 0.116704 0.121277 0.125596 0.129668 0.133495 0.137094 0.140486 0.143671 0.146655 0.149463 0.152096 0.154556 0.156862 0.159021 0.161033 0.162908 0.164657 0.16628 0.167781 0.169172 0.170454 0.171627 0.172701 0.173678 0.174558 0.175346 0.176046 0.176658 0.177184 0.177626 0.177987 0.178266 0.178465 0.178584 0.178623 0.178584 0.178465 0.178266 0.177987 0.177626 0.177184 0.176658 0.176046 0.175346 0.174558 0.173678 0.172701 0.171627 0.170454 0.169172 0.167781 0.16628 0.164657 0.162908 0.161033 0.159021 0.156862 0.154556 0.152096 0.149463 0.146655 0.143671 0.140486 0.137094 0.133495 0.129668 0.125596 0.121277 0.116704 0.111846 0.106701 0.101267 0.0955178 0.0894438 0.0830454 0.0763098 0.0692242 0.0617884 0.0540018 0.045862 0.0373689 0.0285238 0.0193446 0.00983663 0 0 0.00983982 0.0193679 0.0285843 0.0374825 0.0460415 0.0542599 0.0621377 0.0696764 0.0768766 0.0837382 0.0902716 0.096487 0.102384 0.107971 0.113272 0.118287 0.123021 0.127498 0.131728 0.135711 0.139464 0.143006 0.146337 0.149463 0.152407 0.155172 0.157759 0.160187 0.162462 0.164584 0.166563 0.168411 0.170127 0.171716 0.173188 0.174546 0.175789 0.176928 0.177964 0.178899 0.179735 0.180478 0.181129 0.181687 0.182158 0.182541 0.182837 0.183048 0.183175 0.183217 0.183175 0.183048 0.182837 0.182541 0.182158 0.181687 0.181129 0.180478 0.179735 0.178899 0.177964 0.176928 0.175789 0.174546 0.173188 0.171716 0.170127 0.168411 0.166563 0.164584 0.162462 0.160187 0.157759 0.155172 0.152407 0.149463 0.146337 0.143006 0.139464 0.135711 0.131728 0.127498 0.123021 0.118287 0.113272 0.107971 0.102384 0.096487 0.0902716 0.0837382 0.0768766 0.0696764 0.0621377 0.0542599 0.0460415 0.0374825 0.0285843 0.0193679 0.00983982 0 0 0.00984582 0.0193934 0.0286427 0.0375871 0.0462053 0.0544954 0.0624576 0.0700918 0.0773979 0.0843758 0.091034 0.0973806 0.103416 0.109146 0.114592 0.119756 0.12464 0.129267 0.133647 0.137778 0.141678 0.145363 0.148833 0.152096 0.155172 0.158065 0.160775 0.16332 0.165707 0.167936 0.170018 0.171962 0.173769 0.175443 0.176995 0.178428 0.17974 0.180943 0.182037 0.183025 0.183909 0.184695 0.185383 0.185974 0.186472 0.186878 0.187192 0.187415 0.187549 0.187594 0.187549 0.187415 0.187192 0.186878 0.186472 0.185974 0.185383 0.184695 0.183909 0.183025 0.182037 0.180943 0.17974 0.178428 0.176995 0.175443 0.173769 0.171962 0.170018 0.167936 0.165707 0.16332 0.160775 0.158065 0.155172 0.152096 0.148833 0.145363 0.141678 0.137778 0.133647 0.129267 0.12464 0.119756 0.114592 0.109146 0.103416 0.0973806 0.091034 0.0843758 0.0773979 0.0700918 0.0624576 0.0544954 0.0462053 0.0375871 0.0286427 0.0193934 0.00984582 0 0 0.00985436 0.0194206 0.0286989 0.037683 0.0463535 0.0547088 0.0627488 0.0704709 0.0778743 0.084959 0.0917319 0.0981996 0.104362 0.110226 0.115808 0.121111 0.126136 0.130905 0.135426 0.139698 0.143736 0.147558 0.151162 0.154556 0.157759 0.160775 0.163603 0.166262 0.168759 0.171092 0.173272 0.175311 0.177207 0.178964 0.180595 0.1821 0.183481 0.184746 0.185898 0.186938 0.187869 0.188698 0.189423 0.190045 0.190571 0.190999 0.191329 0.191565 0.191707 0.191754 0.191707 0.191565 0.191329 0.190999 0.190571 0.190045 0.189423 0.188698 0.187869 0.186938 0.185898 0.184746 0.183481 0.1821 0.180595 0.178964 0.177207 0.175311 0.173272 0.171092 0.168759 0.166262 0.163603 0.160775 0.157759 0.154556 0.151162 0.147558 0.143736 0.139698 0.135426 0.130905 0.126136 0.121111 0.115808 0.110226 0.104362 0.0981996 0.0917319 0.084959 0.0778743 0.0704709 0.0627488 0.0547088 0.0463535 0.037683 0.0286989 0.0194206 0.00985436 0 0 0.00986204 0.0194455 0.0287505 0.0377713 0.0464902 0.0549056 0.0630174 0.0708207 0.0783142 0.0854979 0.0923772 0.0989577 0.105239 0.111227 0.116937 0.12237 0.127528 0.13243 0.137084 0.14149 0.145661 0.149612 0.153344 0.156862 0.160187 0.16332 0.166262 0.169031 0.171633 0.174067 0.176343 0.178472 0.180454 0.182293 0.184 0.185576 0.187023 0.188349 0.189557 0.190648 0.191626 0.192495 0.193256 0.19391 0.194462 0.194912 0.195259 0.195507 0.195656 0.195705 0.195656 0.195507 0.195259 0.194912 0.194462 0.19391 0.193256 0.192495 0.191626 0.190648 0.189557 0.188349 0.187023 0.185576 0.184 0.182293 0.180454 0.178472 0.176343 0.174067 0.171633 0.169031 0.166262 0.16332 0.160187 0.156862 0.153344 0.149612 0.145661 0.14149 0.137084 0.13243 0.127528 0.12237 0.116937 0.111227 0.105239 0.0989577 0.0923772 0.0854979 0.0783142 0.0708207 0.0630174 0.0549056 0.0464902 0.0377713 0.0287505 0.0194455 0.00986204 0 0 0.00986783 0.0194667 0.0287967 0.0378524 0.0466165 0.0550876 0.0632652 0.0711433 0.0787201 0.0859955 0.0929737 0.0996591 0.106051 0.112155 0.117984 0.123539 0.128821 0.13385 0.138629 0.14316 0.147456 0.151531 0.155384 0.159021 0.162462 0.165707 0.168759 0.171633 0.174335 0.176866 0.179234 0.181451 0.183516 0.185433 0.187214 0.188859 0.19037 0.191755 0.193018 0.194158 0.195181 0.19609 0.196887 0.197571 0.198149 0.19862 0.198984 0.199243 0.199399 0.199451 0.199399 0.199243 0.198984 0.19862 0.198149 0.197571 0.196887 0.19609 0.195181 0.194158 0.193018 0.191755 0.19037 0.188859 0.187214 0.185433 0.183516 0.181451 0.179234 0.176866 0.174335 0.171633 0.168759 0.165707 0.162462 0.159021 0.155384 0.151531 0.147456 0.14316 0.138629 0.13385 0.128821 0.123539 0.117984 0.112155 0.106051 0.0996591 0.0929737 0.0859955 0.0787201 0.0711433 0.0632652 0.0550876 0.0466165 0.0378524 0.0287967 0.0194667 0.00986783 0 0 0.00987171 0.0194842 0.0288376 0.0379263 0.0467324 0.0552546 0.0634923 0.0714388 0.079092 0.0864519 0.0935214 0.100304 0.106799 0.11301 0.118949 0.124618 0.130017 0.135163 0.14006 0.14471 0.149124 0.153315 0.157283 0.161033 0.164584 0.167936 0.171092 0.174067 0.176866 0.179489 0.181947 0.184248 0.186393 0.188386 0.190238 0.19195 0.193522 0.194965 0.196281 0.197469 0.198535 0.199484 0.200314 0.201029 0.201632 0.202123 0.202503 0.202774 0.202936 0.20299 0.202936 0.202774 0.202503 0.202123 0.201632 0.201029 0.200314 0.199484 0.198535 0.197469 0.196281 0.194965 0.193522 0.19195 0.190238 0.188386 0.186393 0.184248 0.181947 0.179489 0.176866 0.174067 0.171092 0.167936 0.164584 0.161033 0.157283 0.153315 0.149124 0.14471 0.14006 0.135163 0.130017 0.124618 0.118949 0.11301 0.106799 0.100304 0.0935214 0.0864519 0.079092 0.0714388 0.0634923 0.0552546 0.0467324 0.0379263 0.0288376 0.0194842 0.00987171 0 0 0.0098748 0.0194997 0.0288747 0.037994 0.0468389 0.0554081 0.063701 0.0717103 0.0794339 0.0868718 0.0940258 0.100898 0.107488 0.113799 0.119841 0.125616 0.131124 0.136379 0.141388 0.146148 0.150673 0.154974 0.159051 0.162908 0.166563 0.170018 0.173272 0.176343 0.179234 0.181947 0.184489 0.186871 0.189093 0.191159 0.193079 0.194855 0.196488 0.197986 0.199352 0.200587 0.201696 0.202682 0.203546 0.204289 0.204916 0.205427 0.205822 0.206104 0.206273 0.20633 0.206273 0.206104 0.205822 0.205427 0.204916 0.204289 0.203546 0.202682 0.201696 0.200587 0.199352 0.197986 0.196488 0.194855 0.193079 0.191159 0.189093 0.186871 0.184489 0.181947 0.179234 0.176343 0.173272 0.170018 0.166563 0.162908 0.159051 0.154974 0.150673 0.146148 0.141388 0.136379 0.131124 0.125616 0.119841 0.113799 0.107488 0.100898 0.0940258 0.0868718 0.0794339 0.0717103 0.063701 0.0554081 0.0468389 0.037994 0.0288747 0.0194997 0.0098748 0 0 0.0098782 0.0195147 0.0289094 0.0380566 0.0469372 0.0555497 0.0638936 0.0719612 0.07975 0.08726 0.0944922 0.101447 0.108126 0.11453 0.120668 0.126541 0.132151 0.137509 0.142621 0.147487 0.152116 0.15652 0.160699 0.164657 0.168411 0.171962 0.175311 0.178472 0.181451 0.184248 0.186871 0.189331 0.191626 0.193761 