<?xml version="1.0"?> 
<VTKFile type="StructuredGrid" version="0.1"> 
<StructuredGrid WholeExtent="0 40 0 40 0 0"> 
<Piece Extent="0 40 0 40 0 0"> 
<PointData Vectors="displacement">
<DataArray type="Float32" Name="displacement" format="ascii" NumberOfComponents="3"> 
-0.000193188 0 0 -0.000193064 6.83011e-06 0 -0.000192684 1.37487e-05 0 -0.000192039 2.07441e-05 0 -0.000191119 2.78036e-05 0 -0.000189916 3.49135e-05 0 -0.000188423 4.2059e-05 0 -0.000186634 4.92248e-05 0 -0.000184543 5.63943e-05 0 -0.000182147 6.35506e-05 0 -0.000179444 7.06758e-05 0 -0.000176432 7.77517e-05 0 -0.000173113 8.47596e-05 0 -0.000169488 9.16807e-05 0 -0.000165563 9.84957e-05 0 -0.000161342 0.000105186 0 -0.000156832 0.000111732 0 -0.000152044 0.000118115 0 -0.000146986 0.000124318 0 -0.00014167 0.000130322 0 -0.000136111 0.000136111 0 -0.000130322 0.00014167 0 -0.000124318 0.000146986 0 -0.000118115 0.000152044 0 -0.000111732 0.000156832 0 -0.000105186 0.000161342 0 -9.84957e-05 0.000165563 0 -9.16807e-05 0.000169488 0 -8.47596e-05 0.000173113 0 -7.77517e-05 0.000176432 0 -7.06758e-05 0.000179444 0 -6.35506e-05 0.000182147 0 -5.63943e-05 0.000184543 0 -4.92248e-05 0.000186634 0 -4.2059e-05 0.000188423 0 -3.49135e-05 0.000189916 0 -2.78036e-05 0.000191119 0 -2.07441e-05 0.000192039 0 -1.37487e-05 0.000192684 0 -6.83011e-06 0.000193064 0 0 0.000193188 0 -0.000187736 0 0 -0.00018753 6.89365e-06 0 -0.000187043 1.38604e-05 0 -0.000186266 2.08826e-05 0 -0.000185193 2.79415e-05 0 -0.000183817 3.50174e-05 0 -0.000182137 4.209e-05 0 -0.00018015 4.91383e-05 0 -0.000177859 5.61412e-05 0 -0.000175267 6.30776e-05 0 -0.000172379 6.99266e-05 0 -0.000169203 7.6668e-05 0 -0.000165748 8.32824e-05 0 -0.000162026 8.97514e-05 0 -0.00015805 9.60579e-05 0 -0.000153835 0.000102186 0 -0.000149395 0.000108122 0 -0.000144746 0.000113854 0 -0.000139906 0.00011937 0 -0.000134892 0.000124661 0 -0.00012972 0.00012972 0 -0.000124661 0.000134892 0 -0.00011937 0.000139906 0 -0.000113854 0.000144746 0 -0.000108122 0.000149395 0 -0.000102186 0.000153835 0 -9.60579e-05 0.00015805 0 -8.97514e-05 0.000162026 0 -8.32824e-05 0.000165748 0 -7.6668e-05 0.000169203 0 -6.99266e-05 0.000172379 0 -6.30776e-05 0.000175267 0 -5.61412e-05 0.000177859 0 -4.91383e-05 0.00018015 0 -4.209e-05 0.000182137 0 -3.50174e-05 0.000183817 0 -2.79415e-05 0.000185193 0 -2.08826e-05 0.000186266 0 -1.38604e-05 0.000187043 0 -6.89365e-06 0.00018753 0 0 0.000187736 0 -0.000183533 0 0 -0.000183285 6.95393e-06 0 -0.000182738 1.39686e-05 0 -0.000181886 2.10219e-05 0 -0.000180724 2.80906e-05 0 -0.000179249 3.5151e-05 0 -0.000177464 4.21789e-05 0 -0.000175371 4.91502e-05 0 -0.000172977 5.60413e-05 0 -0.000170292 6.28295e-05 0 -0.000167326 6.94933e-05 0 -0.000164093 7.60126e-05 0 -0.00016061 8.23692e-05 0 -0.000156891 8.8547e-05 0 -0.000152957 9.45316e-05 0 -0.000148824 0.000100311 0 -0.000144514 0.000105876 0 -0.000140043 0.000111218 0 -0.000135432 0.000116332 0 -0.000130699 0.000121214 0 -0.000125862 0.000125862 0 -0.000121214 0.000130699 0 -0.000116332 0.000135432 0 -0.000111218 0.000140043 0 -0.000105876 0.000144514 0 -0.000100311 0.000148824 0 -9.45316e-05 0.000152957 0 -8.8547e-05 0.000156891 0 -8.23692e-05 0.00016061 0 -7.60126e-05 0.000164093 0 -6.94933e-05 0.000167326 0 -6.28295e-05 0.000170292 0 -5.60413e-05 0.000172977 0 -4.91502e-05 0.000175371 0 -4.21789e-05 0.000177464 0 -3.5151e-05 0.000179249 0 -2.80906e-05 0.000180724 0 -2.10219e-05 0.000181886 0 -1.39686e-05 0.000182738 0 -6.95393e-06 0.000183285 0 0 0.000183533 0 -0.00018035 0 0 -0.000180087 7.01619e-06 0 -0.000179513 1.40835e-05 0 -0.000178624 2.11764e-05 0 -0.000177417 2.82685e-05 0 -0.000175893 3.5333e-05 0 -0.000174058 4.23435e-05 0 -0.000171917 4.9274e-05 0 -0.000169483 5.60999e-05 0 -0.000166768 6.2798e-05 0 -0.000163789 6.93472e-05 0 -0.000160563 7.57287e-05 0 -0.000157109 8.1926e-05 0 -0.000153448 8.79254e-05 0 -0.0001496 9.37155e-05 0 -0.000145587 9.92877e-05 0 -0.000141428 0.000104636 0 -0.000137145 0.000109755 0 -0.000132755 0.000114644 0 -0.000128278 0.000119302 0 -0.00012373 0.00012373 0 -0.000119302 0.000128278 0 -0.000114644 0.000132755 0 -0.000109755 0.000137145 0 -0.000104636 0.000141428 0 -9.92877e-05 0.000145587 0 -9.37155e-05 0.0001496 0 -8.79254e-05 0.000153448 0 -8.1926e-05 0.000157109 0 -7.57287e-05 0.000160563 0 -6.93472e-05 0.000163789 0 -6.2798e-05 0.000166768 0 -5.60999e-05 0.000169483 0 -4.9274e-05 0.000171917 0 -4.23435e-05 0.000174058 0 -3.5333e-05 0.000175893 0 -2.82685e-05 0.000177417 0 -2.11764e-05 0.000178624 0 -1.40835e-05 0.000179513 0 -7.01619e-06 0.000180087 0 0 0.00018035 0 -0.000178021 0 0 -0.000177761 7.08302e-06 0 -0.000177184 1.42099e-05 0 -0.000176285 2.13524e-05 0 -0.000175064 2.84818e-05 0 -0.000173526 3.55694e-05 0 -0.000171678 4.25872e-05 0 -0.00016953 4.95084e-05 0 -0.000167096 5.63081e-05 0 -0.000164394 6.29634e-05 0 -0.000161442 6.94542e-05 0 -0.000158261 7.57632e-05 0 -0.000154873 8.18758e-05 0 -0.000151299 8.77806e-05 0 -0.000147562 9.34689e-05 0 -0.000143684 9.89345e-05 0 -0.000139685 0.000104174 0 -0.000135586 0.000109186 0 -0.000131405 0.00011397 0 -0.000127159 0.000118529 0 -0.000122865 0.000122865 0 -0.000118529 0.000127159 0 -0.00011397 0.000131405 0 -0.000109186 0.000135586 0 -0.000104174 0.000139685 0 -9.89345e-05 0.000143684 0 -9.34689e-05 0.000147562 0 -8.77806e-05 0.000151299 0 -8.18758e-05 0.000154873 0 -7.57632e-05 0.000158261 0 -6.94542e-05 0.000161442 0 -6.29634e-05 0.000164394 0 -5.63081e-05 0.000167096 0 -4.95084e-05 0.00016953 0 -4.25872e-05 0.000171678 0 -3.55694e-05 0.000173526 0 -2.84818e-05 0.000175064 0 -2.13524e-05 0.000176285 0 -1.42099e-05 0.000177184 0 -7.08302e-06 0.000177761 0 0 0.000178021 0 -0.000176401 0 0 -0.000176159 7.15608e-06 0 -0.000175594 1.43505e-05 0 -0.000174704 2.15532e-05 0 -0.000173491 2.87336e-05 0 -0.000171962 3.58618e-05 0 -0.000170126 4.29088e-05 0 -0.000167996 4.98476e-05 0 -0.00016559 5.66532e-05 0 -0.000162926 6.33037e-05 0 -0.000160025 6.97801e-05 0 -0.000156912 7.60665e-05 0 -0.000153607 8.21503e-05 0 -0.000150135 8.8022e-05 0 -0.000146519 9.36752e-05 0 -0.000142781 9.91057e-05 0 -0.000138941 0.000104312 0 -0.000135018 0.000109295 0 -0.000131031 0.000114055 0 -0.000126995 0.000118597 0 -0.000122925 0.000122925 0 -0.000118597 0.000126995 0 -0.000114055 0.000131031 0 -0.000109295 0.000135018 0 -0.000104312 0.000138941 0 -9.91057e-05 0.000142781 0 -9.36752e-05 0.000146519 0 -8.8022e-05 0.000150135 0 -8.21503e-05 0.000153607 0 -7.60665e-05 0.000156912 0 -6.97801e-05 0.000160025 0 -6.33037e-05 0.000162926 0 -5.66532e-05 0.00016559 0 -4.98476e-05 0.000167996 0 -4.29088e-05 0.000170126 0 -3.58618e-05 0.000171962 0 -2.87336e-05 0.000173491 0 -2.15532e-05 0.000174704 0 -1.43505e-05 0.000175594 0 -7.15608e-06 0.000176159 0 0 0.000176401 0 -0.000175388 0 0 -0.000175171 7.23597e-06 0 -0.00017463 1.45064e-05 0 -0.000173762 2.17796e-05 0 -0.000172572 2.90238e-05 0 -0.000171067 3.62083e-05 0 -0.00016926 4.33036e-05 0 -0.000167166 5.02827e-05 0 -0.000164804 5.71212e-05 0 -0.000162194 6.37979e-05 0 -0.000159361 7.02951e-05 0 -0.000156327 7.65983e-05 0 -0.000153117 8.26967e-05 0 -0.000149754 8.85825e-05 0 -0.000146262 9.42508e-05 0 -0.000142663 9.96995e-05 0 -0.000138976 0.000104928 0 -0.00013522 0.000109939 0 -0.000131411 0.000114734 0 -0.000127566 0.000119318 0 -0.000123696 0.000123696 0 -0.000119318 0.000127566 0 -0.000114734 0.000131411 0 -0.000109939 0.00013522 0 -0.000104928 0.000138976 0 -9.96995e-05 0.000142663 0 -9.42508e-05 0.000146262 0 -8.85825e-05 0.000149754 0 -8.26967e-05 0.000153117 0 -7.65983e-05 0.000156327 0 -7.02951e-05 0.000159361 0 -6.37979e-05 0.000162194 0 -5.71212e-05 0.000164804 0 -5.02827e-05 0.000167166 0 -4.33036e-05 0.00016926 0 -3.62083e-05 0.000171067 0 -2.90238e-05 0.000172572 0 -2.17796e-05 0.000173762 0 -1.45064e-05 0.00017463 0 -7.23597e-06 0.000175171 0 0 0.000175388 0 -0.000174889 0 0 -0.000174704 7.32297e-06 0 -0.000174193 1.46776e-05 0 -0.000173357 2.20311e-05 0 -0.000172199 2.9351e-05 0 -0.00017073 3.66057e-05 0 -0.000168962 4.3766e-05 0 -0.000166915 5.08047e-05 0 -0.000164607 5.76982e-05 0 -0.000162062 6.44263e-05 0 -0.000159303 7.09723e-05 0 -0.000156355 7.73231e-05 0 -0.000153243 8.34694e-05 0 -0.000149991 8.94048e-05 0 -0.000146622 9.51259e-05 0 -0.000143157 0.000100632 0 -0.000139615 0.000105923 0 -0.000136015 0.000111003 0 -0.000132373 0.000115874 0 -0.000128701 0.000120542 0 -0.000125012 0.000125012 0 -0.000120542 0.000128701 0 -0.000115874 0.000132373 0 -0.000111003 0.000136015 0 -0.000105923 0.000139615 0 -0.000100632 0.000143157 0 -9.51259e-05 0.000146622 0 -8.94048e-05 0.000149991 0 -8.34694e-05 0.000153243 0 -7.73231e-05 0.000156355 0 -7.09723e-05 0.000159303 0 -6.44263e-05 0.000162062 0 -5.76982e-05 0.000164607 0 -5.08047e-05 0.000166915 0 -4.3766e-05 0.000168962 0 -3.66057e-05 0.00017073 0 -2.9351e-05 0.000172199 0 -2.20311e-05 0.000173357 0 -1.46776e-05 0.000174193 0 -7.32297e-06 0.000174704 0 0 0.000174889 0 -0.000174835 0 0 -0.000174686 7.417e-06 0 -0.000174211 1.48639e-05 0 -0.000173411 2.23069e-05 0 -0.000172292 2.97131e-05 0 -0.000170865 3.70506e-05 0 -0.000169144 4.42901e-05 0 -0.00016715 5.1405e-05 0 -0.000164902 5.83722e-05 0 -0.000162426 6.51724e-05 0 -0.000159746 7.17899e-05 0 -0.000156887 7.82132e-05 0 -0.000153874 8.44338e-05 0 -0.000150731 9.04468e-05 0 -0.000147481 9.62497e-05 0 -0.000144145 0.000101843 0 -0.000140741 0.000107227 0 -0.000137287 0.000112407 0 -0.000133797 0.000117386 0 -0.000130284 0.000122168 0 -0.00012676 0.00012676 0 -0.000122168 0.000130284 0 -0.000117386 0.000133797 0 -0.000112407 0.000137287 0 -0.000107227 0.000140741 0 -0.000101843 0.000144145 0 -9.62497e-05 0.000147481 0 -9.04468e-05 0.000150731 0 -8.44338e-05 0.000153874 0 -7.82132e-05 0.000156887 0 -7.17899e-05 0.000159746 0 -6.51724e-05 0.000162426 0 -5.83722e-05 0.000164902 0 -5.1405e-05 0.00016715 0 -4.42901e-05 0.000169144 0 -3.70506e-05 0.000170865 0 -2.97131e-05 0.000172292 0 -2.23069e-05 0.000173411 0 -1.48639e-05 0.000174211 0 -7.417e-06 0.000174686 0 0 0.000174835 0 -0.000175165 0 0 -0.000175054 7.51788e-06 0 -0.000174618 1.50645e-05 0 -0.000173858 2.26057e-05 0 -0.000172781 3.01078e-05 0 -0.000171399 3.75391e-05 0 -0.00016973 4.48703e-05 0 -0.000167792 5.20754e-05 0 -0.000165608 5.91319e-05 0 -0.000163203 6.60212e-05 0 -0.000160602 7.2729e-05 0 -0.000157831 7.92444e-05 0 -0.000154915 8.55603e-05 0 -0.000151878 9.16725e-05 0 -0.000148742 9.75797e-05 0 -0.000145528 0.000103283 0 -0.000142253 0.000108783 0 -0.000138935 0.000114086 0 -0.000135587 0.000119194 0 -0.000132222 0.000124113 0 -0.000128848 0.000128848 0 -0.000124113 0.000132222 0 -0.000119194 0.000135587 0 -0.000114086 0.000138935 0 -0.000108783 0.000142253 0 -0.000103283 0.000145528 0 -9.75797e-05 0.000148742 0 -9.16725e-05 0.000151878 0 -8.55603e-05 0.000154915 0 -7.92444e-05 0.000157831 0 -7.2729e-05 0.000160602 0 -6.60212e-05 0.000163203 0 -5.91319e-05 0.000165608 0 -5.20754e-05 0.000167792 0 -4.48703e-05 0.00016973 0 -3.75391e-05 0.000171399 0 -3.01078e-05 0.000172781 0 -2.26057e-05 0.000173858 0 -1.50645e-05 0.000174618 0 -7.51788e-06 0.000175054 0 0 0.000175165 0 -0.000175832 0 0 -0.00017576 7.62536e-06 0 -0.000175364 1.52789e-05 0 -0.000174645 2.2926e-05 0 -0.000173612 3.0533e-05 0 -0.000172278 3.80679e-05 0 -0.000170661 4.55018e-05 0 -0.000168781 5.28091e-05 0 -0.000166661 5.99681e-05 0 -0.000164327 6.6961e-05 0 -0.000161804 7.37743e-05 0 -0.00015912 8.0398e-05 0 -0.000156297 8.6826e-05 0 -0.000153362 9.3055e-05 0 -0.000150334 9.90841e-05 0 -0.000147235 0.000104915 0 -0.000144083 0.00011055 0 -0.000140892 0.000115992 0 -0.000137676 0.000121248 0 -0.000134447 0.00012632 0 -0.000131214 0.000131214 0 -0.00012632 0.000134447 0 -0.000121248 0.000137676 0 -0.000115992 0.000140892 0 -0.00011055 0.000144083 0 -0.000104915 0.000147235 0 -9.90841e-05 0.000150334 0 -9.3055e-05 0.000153362 0 -8.6826e-05 0.000156297 0 -8.0398e-05 0.00015912 0 -7.37743e-05 0.000161804 0 -6.6961e-05 0.000164327 0 -5.99681e-05 0.000166661 0 -5.28091e-05 0.000168781 0 -4.55018e-05 0.000170661 0 -3.80679e-05 0.000172278 0 -3.0533e-05 0.000173612 0 -2.2926e-05 0.000174645 0 -1.52789e-05 0.000175364 0 -7.62536e-06 0.00017576 0 0 0.000175832 0 -0.000176794 0 0 -0.000176761 7.73916e-06 0 -0.000176404 1.55064e-05 0 -0.000175727 2.32668e-05 0 -0.000174739 3.09864e-05 0 -0.000173453 3.86337e-05 0 -0.000171888 4.61799e-05 0 -0.000170065 5.35999e-05 0 -0.000168008 6.08726e-05 0 -0.000165743 6.7981e-05 0 -0.000163297 7.49124e-05 0 -0.000160695 8.16577e-05 0 -0.000157962 8.82113e-05 0 -0.000155123 9.45707e-05 0 -0.000152198 0.000100736 0 -0.000149208 0.000106708 0 -0.00014617 0.00011249 0 -0.000143098 0.000118086 0 -0.000140007 0.000123501 0 -0.000136906 0.000128739 0 -0.000133804 0.000133804 0 -0.000128739 0.000136906 0 -0.000123501 0.000140007 0 -0.000118086 0.000143098 0 -0.00011249 0.00014617 0 -0.000106708 0.000149208 0 -0.000100736 0.000152198 0 -9.45707e-05 0.000155123 0 -8.82113e-05 0.000157962 0 -8.16577e-05 0.000160695 0 -7.49124e-05 0.000163297 0 -6.7981e-05 0.000165743 0 -6.08726e-05 0.000168008 0 -5.35999e-05 0.000170065 0 -4.61799e-05 0.000171888 0 -3.86337e-05 0.000173453 0 -3.09864e-05 0.000174739 0 -2.32668e-05 0.000175727 0 -1.55064e-05 0.000176404 0 -7.73916e-06 0.000176761 0 0 0.000176794 0 -0.000178018 0 0 -0.000178022 7.859e-06 0 -0.000177704 1.57463e-05 0 -0.000177068 2.36267e-05 0 -0.000176123 3.14664e-05 0 -0.000174884 3.92339e-05 0 -0.00017337 4.69009e-05 0 -0.000171603 5.44426e-05 0 -0.000169607 6.18387e-05 0 -0.000167409 6.90729e-05 0 -0.000165035 7.6133e-05 0 -0.000162512 8.30108e-05 0 -0.000159865 8.97012e-05 0 -0.000157116 9.62022e-05 0 -0.000154288 0.000102514 0 -0.000151401 0.000108638 0 -0.00014847 0.000114579 0 -0.000145511 0.000120339 0 -0.000142537 0.000125923 0 -0.000139557 0.000131335 0 -0.00013658 0.00013658 0 -0.000131335 0.000139557 0 -0.000125923 0.000142537 0 -0.000120339 0.000145511 0 -0.000114579 0.00014847 0 -0.000108638 0.000151401 0 -0.000102514 0.000154288 0 -9.62022e-05 0.000157116 0 -8.97012e-05 0.000159865 0 -8.30108e-05 0.000162512 0 -7.6133e-05 0.000165035 0 -6.90729e-05 0.000167409 0 -6.18387e-05 0.000169607 0 -5.44426e-05 0.000171603 0 -4.69009e-05 0.00017337 0 -3.92339e-05 0.000174884 0 -3.14664e-05 0.000176123 0 -2.36267e-05 0.000177068 0 -1.57463e-05 0.000177704 0 -7.859e-06 0.000178022 0 0 0.000178018 0 -0.000179472 0 0 -0.000179512 7.98462e-06 0 -0.000179232 1.59979e-05 0 -0.000178635 2.40047e-05 0 -0.000177733 3.19711e-05 0 -0.000176539 3.9866e-05 0 -0.000175074 4.76612e-05 0 -0.000173359 5.53328e-05 0 -0.000171422 6.28606e-05 0 -0.000169287 7.02292e-05 0 -0.000166982 7.7427e-05 0 -0.000164533 8.44462e-05 0 -0.000161966 9.12825e-05 0 -0.000159303 9.79341e-05 0 -0.000156566 0.000104402 0 -0.000153775 0.000110687 0 -0.000150946 0.000116793 0 -0.000148094 0.000122725 0 -0.000145231 0.000128485 0 -0.000142366 0.000134078 0 -0.000139509 0.000139509 0 -0.000134078 0.000142366 0 -0.000128485 0.000145231 0 -0.000122725 0.000148094 0 -0.000116793 0.000150946 0 -0.000110687 0.000153775 0 -0.000104402 0.000156566 0 -9.79341e-05 0.000159303 0 -9.12825e-05 0.000161966 0 -8.44462e-05 0.000164533 0 -7.7427e-05 0.000166982 0 -7.02292e-05 0.000169287 0 -6.28606e-05 0.000171422 0 -5.53328e-05 0.000173359 0 -4.76612e-05 0.000175074 0 -3.9866e-05 0.000176539 0 -3.19711e-05 0.000177733 0 -2.40047e-05 0.000178635 0 -1.59979e-05 0.000179232 0 -7.98462e-06 0.000179512 0 0 0.000179472 0 -0.000181133 0 0 -0.000181207 8.1158e-06 0 -0.000180962 1.62608e-05 0 -0.000180403 2.43998e-05 0 -0.00017954 3.24992e-05 0 -0.000178389 4.05279e-05 0 -0.00017697 4.84583e-05 0 -0.000175306 5.62667e-05 0 -0.000173423 6.39337e-05 0 -0.000171347 7.14442e-05 0 -0.000169107 7.87873e-05 0 -0.000166727 8.59557e-05 0 -0.000164235 9.29453e-05 0 -0.000161653 9.97549e-05 0 -0.000159002 0.000106385 0 -0.000156302 0.000112838 0 -0.00015357 0.000119117 0 -0.000150819 0.000125225 0 -0.000148062 0.000131167 0 -0.000145308 0.000136946 0 -0.000142567 0.000142567 0 -0.000136946 0.000145308 0 -0.000131167 0.000148062 0 -0.000125225 0.000150819 0 -0.000119117 0.00015357 0 -0.000112838 0.000156302 0 -0.000106385 0.000159002 0 -9.97549e-05 0.000161653 0 -9.29453e-05 0.000164235 0 -8.59557e-05 0.000166727 0 -7.87873e-05 0.000169107 0 -7.14442e-05 0.000171347 0 -6.39337e-05 0.000173423 0 -5.62667e-05 0.000175306 0 -4.84583e-05 0.00017697 0 -4.05279e-05 0.000178389 0 -3.24992e-05 0.00017954 0 -2.43998e-05 0.000180403 0 -1.62608e-05 0.000180962 0 -8.1158e-06 0.000181207 0 0 0.000181133 0 -0.000182978 0 0 -0.000183084 8.25237e-06 0 -0.000182872 1.65346e-05 0 -0.000182348 2.48115e-05 0 -0.000181522 3.30496e-05 0 -0.00018041 4.12181e-05 0 -0.000179034 4.92898e-05 0 -0.000177416 5.72413e-05 0 -0.000175584 6.50539e-05 0 -0.000173563 7.27129e-05 0 -0.000171383 8.02078e-05 0 -0.000169068 8.75317e-05 0 -0.000166646 9.4681e-05 0 -0.000164139 0.000101655 0 -0.000161569 0.000108453 0 -0.000158956 0.000115079 0 -0.000156315 0.000121535 0 -0.000153662 0.000127825 0 -0.000151007 0.000133952 0 -0.000148362 0.00013992 0 -0.000145733 0.000145733 0 -0.00013992 0.000148362 0 -0.000133952 0.000151007 0 -0.000127825 0.000153662 0 -0.000121535 0.000156315 0 -0.000115079 0.000158956 0 -0.000108453 0.000161569 0 -0.000101655 0.000164139 0 -9.4681e-05 0.000166646 0 -8.75317e-05 0.000169068 0 -8.02078e-05 0.000171383 0 -7.27129e-05 0.000173563 0 -6.50539e-05 0.000175584 0 -5.72413e-05 0.000177416 0 -4.92898e-05 0.000179034 0 -4.12181e-05 0.00018041 0 -3.30496e-05 0.000181522 0 -2.48115e-05 0.000182348 0 -1.65346e-05 0.000182872 0 -8.25237e-06 0.000183084 0 0 0.000182978 0 -0.00018499 0 0 -0.000185124 8.39418e-06 0 -0.000184943 1.68189e-05 0 -0.00018445 2.5239e-05 0 -0.000183658 3.36213e-05 0 -0.000182583 4.19352e-05 0 -0.000181245 5.01539e-05 0 -0.00017967 5.82544e-05 0 -0.000177884 6.62183e-05 0 -0.000175914 7.40315e-05 0 -0.000173788 8.16839e-05 0 -0.000171534 8.91689e-05 0 -0.000169177 9.6483e-05 0 -0.000166741 0.000103625 0 -0.000164247 0.000110597 0 -0.000161716 0.000117399 0 -0.000159163 0.000124036 0 -0.000156603 0.000130511 0 -0.000154049 0.000136826 0 -0.000151509 0.000142986 0 -0.000148993 0.000148993 0 -0.000142986 0.000151509 0 -0.000136826 0.000154049 0 -0.000130511 0.000156603 0 -0.000124036 0.000159163 0 -0.000117399 0.000161716 0 -0.000110597 0.000164247 0 -0.000103625 0.000166741 0 -9.6483e-05 0.000169177 0 -8.91689e-05 0.000171534 0 -8.16839e-05 0.000173788 0 -7.40315e-05 0.000175914 0 -6.62183e-05 0.000177884 0 -5.82544e-05 0.00017967 0 -5.01539e-05 0.000181245 0 -4.19352e-05 0.000182583 0 -3.36213e-05 0.000183658 0 -2.5239e-05 0.00018445 0 -1.68189e-05 0.000184943 0 -8.39418e-06 0.000185124 0 0 0.00018499 0 -0.00018715 0 0 -0.000187311 8.54115e-06 0 -0.000187157 1.71135e-05 0 -0.000186692 2.5682e-05 0 -0.00018593 3.42137e-05 0 -0.000184887 4.26783e-05 0 -0.000183585 5.10492e-05 0 -0.000182048 5.93039e-05 0 -0.000180304 6.74244e-05 0 -0.00017838 7.5397e-05 0 -0.000176305 8.32117e-05 0 -0.000174106 9.08624e-05 0 -0.000171809 9.83457e-05 0 -0.00016944 0.000105661 0 -0.000167018 0.000112809 0 -0.000164565 0.000119791 0 -0.000162097 0.000126612 0 -0.000159628 0.000133273 0 -0.000157172 0.000139778 0 -0.000154737 0.00014613 0 -0.000152332 0.000152332 0 -0.00014613 0.000154737 0 -0.000139778 0.000157172 0 -0.000133273 0.000159628 0 -0.000126612 0.000162097 0 -0.000119791 0.000164565 0 -0.000112809 0.000167018 0 -0.000105661 0.00016944 0 -9.83457e-05 0.000171809 0 -9.08624e-05 0.000174106 0 -8.32117e-05 0.000176305 0 -7.5397e-05 0.00017838 0 -6.74244e-05 0.000180304 0 -5.93039e-05 0.000182048 0 -5.10492e-05 0.000183585 0 -4.26783e-05 0.000184887 0 -3.42137e-05 0.00018593 0 -2.5682e-05 0.000186692 0 -1.71135e-05 0.000187157 0 -8.54115e-06 0.000187311 0 0 0.00018715 0 -0.000189445 0 0 -0.00018963 8.69324e-06 0 -0.000189499 1.74183e-05 0 -0.00018906 2.61403e-05 0 -0.000188324 3.48264e-05 0 -0.00018731 4.34467e-05 0 -0.000186039 5.19748e-05 0 -0.000184535 6.03886e-05 0 -0.000182828 6.86705e-05 0 -0.000180946 7.68069e-05 0 -0.000178916 8.47883e-05 0 -0.000176768 9.26087e-05 0 -0.000174528 0.000100265 0 -0.00017222 0.000107756 0 -0.000169867 0.000115083 0 -0.000167489 0.000122248 0 -0.000165103 0.000129254 0 -0.000162724 0.000136103 0 -0.000160364 0.000142799 0 -0.000158033 0.000149344 0 -0.00015574 0.00015574 0 -0.000149344 0.000158033 0 -0.000142799 0.000160364 0 -0.000136103 0.000162724 0 -0.000129254 0.000165103 0 -0.000122248 0.000167489 0 -0.000115083 0.000169867 0 -0.000107756 0.00017222 0 -0.000100265 0.000174528 0 -9.26087e-05 0.000176768 0 -8.47883e-05 0.000178916 0 -7.68069e-05 0.000180946 0 -6.86705e-05 0.000182828 0 -6.03886e-05 0.000184535 0 -5.19748e-05 0.000186039 0 -4.34467e-05 0.00018731 0 -3.48264e-05 0.000188324 0 -2.61403e-05 0.00018906 0 -1.74183e-05 0.000189499 0 -8.69324e-06 0.00018963 0 0 0.000189445 0 -0.000191863 0 0 -0.000192067 8.85045e-06 0 -0.000191957 1.77332e-05 0 -0.000191539 2.66137e-05 0 -0.000190826 3.54592e-05 0 -0.000189836 4.424e-05 0 -0.000188591 5.293e-05 0 -0.000187117 6.15076e-05 0 -0.000185443 6.99552e-05 0 -0.000183597 7.82596e-05 0 -0.000181608 8.64115e-05 0 -0.000179507 9.44051e-05 0 -0.000177318 0.000102237 0 -0.000175069 0.000109907 0 -0.000172781 0.000117416 0 -0.000170476 0.000124765 0 -0.000168169 0.000131957 0 -0.000165878 0.000138995 0 -0.000163615 0.000145881 0 -0.000161389 0.000152619 0 -0.00015921 0.00015921 0 -0.000152619 0.000161389 0 -0.000145881 0.000163615 0 -0.000138995 0.000165878 0 -0.000131957 0.000168169 0 -0.000124765 0.000170476 0 -0.000117416 0.000172781 0 -0.000109907 0.000175069 0 -0.000102237 0.000177318 0 -9.44051e-05 0.000179507 0 -8.64115e-05 0.000181608 0 -7.82596e-05 0.000183597 0 -6.99552e-05 0.000185443 0 -6.15076e-05 0.000187117 0 -5.293e-05 0.000188591 0 -4.424e-05 0.000189836 0 -3.54592e-05 0.000190826 0 -2.66137e-05 0.000191539 0 -1.77332e-05 0.000191957 0 -8.85045e-06 0.000192067 0 0 0.000191863 0 -0.000194392 0 0 -0.000194612 9.01286e-06 0 -0.000194519 1.80585e-05 0 -0.000194119 2.71024e-05 0 -0.000193424 3.61121e-05 0 -0.000192454 4.50581e-05 0 -0.000191231 5.39148e-05 0 -0.000189782 6.26604e-05 0 -0.000188135 7.12778e-05 0 -0.000186321 7.9754e-05 0 -0.000184369 8.80798e-05 0 -0.00018231 9.62495e-05 0 -0.00018017 0.00010426 0 -0.000177975 0.000112111 0 -0.00017575 0.000119802 0 -0.000173515 0.000127336 0 -0.000171287 0.000134715 0 -0.000169083 0.000141942 0 -0.000166916 0.000149018 0 -0.000164796 0.000155948 0 -0.000162732 0.000162732 0 -0.000155948 0.000164796 0 -0.000149018 0.000166916 0 -0.000141942 0.000169083 0 -0.000134715 0.000171287 0 -0.000127336 0.000173515 0 -0.000119802 0.00017575 0 -0.000112111 0.000177975 0 -0.00010426 0.00018017 0 -9.62495e-05 0.00018231 0 -8.80798e-05 0.000184369 0 -7.9754e-05 0.000186321 0 -7.12778e-05 0.000188135 0 -6.26604e-05 0.000189782 0 -5.39148e-05 0.000191231 0 -4.50581e-05 0.000192454 0 -3.61121e-05 0.000193424 0 -2.71024e-05 0.000194119 0 -1.80585e-05 0.000194519 0 -9.01286e-06 0.000194612 0 0 0.000194392 0 -0.000197021 0 0 -0.000197255 9.18057e-06 0 -0.000197175 1.83942e-05 0 -0.000196788 2.76066e-05 0 -0.000196107 3.67854e-05 0 -0.000195153 4.59014e-05 0 -0.000193947 5.4929e-05 0 -0.000192518 6.38468e-05 0 -0.000190894 7.26378e-05 0 -0.000189108 8.12892e-05 0 -0.000187189 8.97919e-05 0 -0.000185167 9.81403e-05 0 -0.000183072 0.000106331 0 -0.00018093 0.000114364 0 -0.000178764 0.000122239 0 -0.000176597 0.000129959 0 -0.000174447 0.000137525 0 -0.000172331 0.000144939 0 -0.000170261 0.000152206 0 -0.000168249 0.000159326 0 -0.000166303 0.000166303 0 -0.000159326 0.000168249 0 -0.000152206 0.000170261 0 -0.000144939 0.000172331 0 -0.000137525 0.000174447 0 -0.000129959 0.000176597 0 -0.000122239 0.000178764 0 -0.000114364 0.00018093 0 -0.000106331 0.000183072 0 -9.81403e-05 0.000185167 0 -8.97919e-05 0.000187189 0 -8.12892e-05 0.000189108 0 -7.26378e-05 0.000190894 0 -6.38468e-05 0.000192518 0 -5.4929e-05 0.000193947 0 -4.59014e-05 0.000195153 0 -3.67854e-05 0.000196107 0 -2.76066e-05 0.000196788 0 -1.83942e-05 0.000197175 0 -9.18057e-06 0.000197255 0 0 0.000197021 0 -0.000199742 0 0 -0.000199985 9.35376e-06 0 -0.000199914 1.87408e-05 0 -0.000199537 2.81268e-05 0 -0.000198867 3.74797e-05 0 -0.000197923 4.67703e-05 0 -0.00019673 5.59732e-05 0 -0.000195316 6.50672e-05 0 -0.000193712 7.40355e-05 0 -0.000191948 8.28652e-05 0 -0.000190057 9.15474e-05 0 -0.00018807 0.000100077 0 -0.000186017 0.000108449 0 -0.000183924 0.000116665 0 -0.000181816 0.000124725 0 -0.000179717 0.00013263 0 -0.000177644 0.000140382 0 -0.000175615 0.000147984 0 -0.000173644 0.000155439 0 -0.000171741 0.000162748 0 -0.000169915 0.000169915 0 -0.000162748 0.000171741 0 -0.000155439 0.000173644 0 -0.000147984 0.000175615 0 -0.000140382 0.000177644 0 -0.00013263 0.000179717 0 -0.000124725 0.000181816 0 -0.000116665 0.000183924 0 -0.000108449 0.000186017 0 -0.000100077 0.00018807 0 -9.15474e-05 0.000190057 0 -8.28652e-05 0.000191948 0 -7.40355e-05 0.000193712 0 -6.50672e-05 0.000195316 0 -5.59732e-05 0.00019673 0 -4.67703e-05 0.000197923 0 -3.74797e-05 0.000198867 0 -2.81268e-05 0.000199537 0 -1.87408e-05 0.000199914 0 -9.35376e-06 0.000199985 0 0 0.000199742 0 -0.000202546 0 0 -0.000202796 9.53267e-06 0 -0.00020273 1.90985e-05 0 -0.000202358 2.86635e-05 0 -0.000201693 3.81954e-05 0 -0.000200756 4.76654e-05 0 -0.000199571 5.7048e-05 0 -0.000198168 6.63222e-05 0 -0.000196578 7.54711e-05 0 -0.000194833 8.4482e-05 0 -0.000192967 9.3346e-05 0 -0.000191011 0.000102058 0 -0.000188996 0.000110613 0 -0.00018695 0.000119013 0 -0.000184899 0.000127257 0 -0.000182866 0.000135346 0 -0.000180871 0.000143284 0 -0.000178931 0.000151072 0 -0.000177059 0.000158713 0 -0.000175268 0.00016621 0 -0.000173565 0.000173565 0 -0.00016621 0.000175268 0 -0.000158713 0.000177059 0 -0.000151072 0.000178931 0 -0.000143284 0.000180871 0 -0.000135346 0.000182866 0 -0.000127257 0.000184899 0 -0.000119013 0.00018695 0 -0.000110613 0.000188996 0 -0.000102058 0.000191011 0 -9.3346e-05 0.000192967 0 -8.4482e-05 0.000194833 0 -7.54711e-05 0.000196578 0 -6.63222e-05 0.000198168 0 -5.7048e-05 0.000199571 0 -4.76654e-05 0.000200756 0 -3.81954e-05 0.000201693 0 -2.86635e-05 0.000202358 0 -1.90985e-05 0.00020273 0 -9.53267e-06 0.000202796 0 0 0.000202546 0 -0.000205427 0 0 -0.000205678 9.71759e-06 0 -0.000205614 1.94681e-05 0 -0.000205244 2.92175e-05 0 -0.00020458 3.89338e-05 0 -0.000203645 4.85879e-05 0 -0.000202463 5.81545e-05 0 -0.000201066 6.76126e-05 0 -0.000199486 7.69454e-05 0 -0.000197756 8.61402e-05 0 -0.00019591 9.51879e-05 0 -0.000193982 0.000104083 0 -0.000192004 0.000112823 0 -0.000190003 0.000121406 0 -0.000188008 0.000129833 0 -0.000186042 0.000138106 0 -0.000184125 0.000146227 0 -0.000182274 0.000154199 0 -0.000180504 0.000162025 0 -0.000178826 0.000169708 0 -0.000177249 0.000177249 0 -0.000169708 0.000178826 0 -0.000162025 0.000180504 0 -0.000154199 0.000182274 0 -0.000146227 0.000184125 0 -0.000138106 0.000186042 0 -0.000129833 0.000188008 0 -0.000121406 0.000190003 0 -0.000112823 0.000192004 0 -0.000104083 0.000193982 0 -9.51879e-05 0.00019591 0 -8.61402e-05 0.000197756 0 -7.69454e-05 0.000199486 0 -6.76126e-05 0.000201066 0 -5.81545e-05 0.000202463 0 -4.85879e-05 0.000203645 0 -3.89338e-05 0.00020458 0 -2.92175e-05 0.000205244 0 -1.94681e-05 0.000205614 0 -9.71759e-06 0.000205678 0 0 0.000205427 0 -0.000208376 0 0 -0.000208626 9.90887e-06 0 -0.00020856 1.98502e-05 0 -0.000208186 2.97898e-05 0 -0.000207519 3.96958e-05 0 -0.000206581 4.95389e-05 0 -0.000205399 5.9294e-05 0 -0.000204004 6.89398e-05 0 -0.000202429 7.84595e-05 0 -0.00020071 8.78403e-05 0 -0.000198882 9.70734e-05 0 -0.000196979 0.000106153 0 -0.000195035 0.000115076 0 -0.000193078 0.000123842 0 -0.000191138 0.000132452 0 -0.000189238 0.000140907 0 -0.0001874 0.00014921 0 -0.00018564 0.000157363 0 -0.000183974 0.000165372 0 -0.000182412 0.000173237 0 -0.000180964 0.000180964 0 -0.000173237 0.000182412 0 -0.000165372 0.000183974 0 -0.000157363 0.00018564 0 -0.00014921 0.0001874 0 -0.000140907 0.000189238 0 -0.000132452 0.000191138 0 -0.000123842 0.000193078 0 -0.000115076 0.000195035 0 -0.000106153 0.000196979 0 -9.70734e-05 0.000198882 0 -8.78403e-05 0.00020071 0 -7.84595e-05 0.000202429 0 -6.89398e-05 0.000204004 0 -5.9294e-05 0.000205399 0 -4.95389e-05 0.000206581 0 -3.96958e-05 0.000207519 0 -2.97898e-05 0.000208186 0 -1.98502e-05 0.00020856 0 -9.90887e-06 0.000208626 0 0 0.000208376 0 -0.000211387 0 0 -0.000211632 1.0107e-05 0 -0.00021156 2.02456e-05 0 -0.000211179 3.03816e-05 0 -0.000210504 4.04828e-05 0 -0.000209559 5.05201e-05 0 -0.000208372 6.0468e-05 0 -0.000206974 7.03051e-05 0 -0.000205401 8.00146e-05 0 -0.00020369 8.95837e-05 0 -0.000201876 9.90032e-05 0 -0.000199996 0.000108268 0 -0.000198084 0.000117374 0 -0.000196171 0.000126322 0 -0.000194285 0.000135112 0 -0.000192452 0.000143746 0 -0.000190694 0.000152228 0 -0.000189027 0.000160561 0 -0.000187466 0.000168749 0 -0.000186023 0.000176795 0 -0.000184704 0.000184704 0 -0.000176795 0.000186023 0 -0.000168749 0.000187466 0 -0.000160561 0.000189027 0 -0.000152228 0.000190694 0 -0.000143746 0.000192452 0 -0.000135112 0.000194285 0 -0.000126322 0.000196171 0 -0.000117374 0.000198084 0 -0.000108268 0.000199996 0 -9.90032e-05 0.000201876 0 -8.95837e-05 0.00020369 0 -8.00146e-05 0.000205401 0 -7.03051e-05 0.000206974 0 -6.0468e-05 0.000208372 0 -5.05201e-05 0.000209559 0 -4.04828e-05 0.000210504 0 -3.03816e-05 0.000211179 0 -2.02456e-05 0.00021156 0 -1.0107e-05 0.000211632 0 0 0.000211387 0 -0.000214455 0 0 -0.000214691 1.03124e-05 0 -0.000214609 2.06552e-05 0 -0.000214216 3.09941e-05 0 -0.000213529 4.12966e-05 0 -0.000212573 5.15333e-05 0 -0.000211376 6.16784e-05 0 -0.000209972 7.17105e-05 0 -0.000208397 8.16124e-05 0 -0.00020669 9.13713e-05 0 -0.000204888 0.000100978 0 -0.000203029 0.000110427 0 -0.000201148 0.000119716 0 -0.000199278 0.000128843 0 -0.000197447 0.000137812 0 -0.000195682 0.000146623 0 -0.000194004 0.000155281 0 -0.000192432 0.00016379 0 -0.000190979 0.000172154 0 -0.000189655 0.000180378 0 -0.000188468 0.000188468 0 -0.000180378 0.000189655 0 -0.000172154 0.000190979 0 -0.00016379 0.000192432 0 -0.00015