<?xml version="1.0"?> 
<VTKFile type="StructuredGrid" version="0.1"> 
<StructuredGrid WholeExtent="0 40 0 40 0 0"> 
<Piece Extent="0 40 0 40 0 0"> 
<PointData Scalars="Stress components">
<DataArray type="Float32" Name="sigma_xx" format="ascii" NumberOfComponents="1"> 
0.0118776 0.0393813 0.121772 0.261041 0.458724 0.71594 1.03335 1.4111 1.84876 2.34528 2.89894 3.50734 4.16734 4.87506 5.62593 6.41465 7.23526 8.08123 8.94553 9.8211 10.6991 11.5736 12.4395 13.2903 14.1194 14.9205 15.6879 16.4163 17.1011 17.7381 18.324 18.8562 19.3326 19.7518 20.1131 20.4162 20.6615 20.8497 20.9819 21.0599 21.0853 1.42272 1.46788 1.5679 1.72379 1.93586 2.20371 2.52614 2.90119 3.32617 3.7976 4.3114 4.86288 5.44687 6.05786 6.69015 7.33792 7.99545 8.65721 9.31795 9.97285 10.6173 11.2625 11.9173 12.5768 13.2358 13.8889 14.5306 15.1553 15.7574 16.3314 16.8721 17.3747 17.8349 18.249 18.6138 18.927 19.1869 19.3926 19.5437 19.6408 19.6847 2.58614 2.64185 2.75103 2.9139 3.1298 3.39719 3.71358 4.07567 4.47934 4.91983 5.39185 5.88973 6.40762 6.93961 7.47996 8.02318 8.56418 9.09836 9.62167 10.1306 10.622 11.1138 11.6215 12.1424 12.673 13.2093 13.7468 14.2805 14.805 15.3147 15.8038 16.2668 16.6983 17.0931 17.4467 17.7554 18.0161 18.2264 18.385 18.4914 18.5458 3.54281 3.60371 3.7158 3.87869 4.09096 4.35021 4.65307 4.9953 5.37199 5.77765 6.20648 6.65251 7.10986 7.57284 8.0362 8.49515 8.9455 9.3837 9.80679 10.2125 10.5995 10.9886 11.3962 11.8204 12.259 12.709 13.1667 13.628 14.088 14.5414 14.9829 15.4065 15.8066 16.1774 16.5139 16.8113 17.0656 17.2737 17.4333 17.5432 17.603 4.34437 4.40736 4.51897 4.67832 4.88346 5.13138 5.41812 5.73894 6.08848 6.46098 6.8505 7.25116 7.65729 8.06367 8.46557 8.85893 9.24032 9.60702 9.95697 10.2888 10.601 10.9145 11.2472 11.5979 11.965 12.3464 12.7391 13.1398 13.5443 13.9478 14.3452 14.731 15.0993 15.4444 15.7607 16.043 16.2869 16.4885 16.645 16.7546 16.8164 5.01672 5.07949 5.18816 5.34148 5.5371 5.77159 6.04066 6.33926 6.66186 7.00267 7.35586 7.71579 8.0772 8.43537 8.78617 9.12617 9.45263 9.76347 10.0573 10.3332 10.5911 10.8502 11.1278 11.4234 11.7358 12.0637 12.4047 12.7561 13.1143 13.4752 13.834 14.1856 14.5242 14.8443 15.1402 15.4064 15.6381 15.8313 15.9825 16.0897 16.1516 5.59129 5.6527 5.75733 5.90366 6.08905 6.30984 6.56152 6.83895 7.13658 7.4487 7.7697 8.09428 8.41758 8.73536 9.04404 9.34071 9.62316 9.88983 10.1397 10.3723 10.5872 10.8049 11.04 11.2924 11.5615 11.8461 12.1448 12.455 12.7739 13.0979 13.4226 13.7431 14.0543 14.3505 14.6263 14.876 15.0948 15.2783 15.423 15.5264 15.5869 6.08273 6.14192 6.2417 6.38038 6.55512 6.76215 6.99686 7.25409 7.5284 7.81425 8.10632 8.39965 8.68981 8.97301 9.24613 9.50675 9.7531 9.98401 10.1988 10.3974 10.5799 10.7655 10.9673 11.1856 11.42 11.6699 11.9338 12.21 12.4958 12.7882 13.0831 13.3763 13.6626 13.9369 14.1937 14.4276 14.6336 14.8072 14.9448 15.0436 15.102 6.50876 6.5653 6.65996 6.79091 6.95521 7.14901 7.36771 7.60622 7.85924 8.12148 8.38788 8.65386 8.91537 9.16902 9.41211 9.6426 9.85907 10.0607 10.2471 10.4184 10.5747 10.7348 10.91 11.1008 11.307 11.528 11.763 12.0104 12.268 12.533 12.8018 13.0706 13.3345 13.5886 13.8277 14.0465 14.24 14.4037 14.5339 14.6278 14.6837 6.87873 6.93233 7.02171 7.14495 7.29906 7.48018 7.68376 7.90485 8.1383 8.3791 8.62249 8.86422 9.10061 9.32865 9.54597 9.75087 9.94223 10.1195 10.2824 10.4313 10.5668 10.7067 10.8608 11.0293 11.2124 11.4097 11.6206 11.8436 12.0771 12.3184 12.5645 12.8117 13.0556 13.2914 13.5142 13.7188 13.9005 14.0547 14.1777 14.2666 14.3196 7.20373 7.25432 7.33851 7.45431 7.59872 7.76792 7.95745 8.1625 8.37814 8.59959 8.82241 9.04267 9.25701 9.46275 9.65783 9.84082 10.0108 10.1675 10.3109 10.4412 10.5589 10.6827 10.8195 10.9699 11.1338 11.3113 11.5018 11.7041 11.9168 12.1376 12.3637 12.5917 12.8176 13.0368 13.2446 13.4362 13.6067 13.7518 13.8677 13.9517 14.0017 7.48968 7.53726 7.61636 7.72498 7.86016 8.01812 8.19453 8.38473 8.58403 8.7879 8.99218 9.19323 9.38801 9.57412 9.74977 9.91377 10.0654 10.2046 10.3313 10.446 10.5494 10.66 10.7828 10.9181 11.0662 11.2271 11.4003 11.585 11.7798 11.9828 12.1914 12.4024 12.6122 12.8164 13.0106 13.1901 13.3502 13.4867 13.596 13.675 13.7221 7.74358 7.78819 7.8624 7.96421 8.09068 8.23812 8.40234 8.57886 8.7632 8.95108 9.13862 9.32245 9.49981 9.66855 9.82712 9.97453 10.1103 10.2343 10.3468 10.4482 10.5392 10.6392 10.7504 10.8733 11.0081 11.155 11.3136 11.4831 11.6625 11.8499 12.0431 12.239 12.4344 12.6251 12.8068 12.9752 13.1256 13.2541 13.357 13.4314 13.4755 7.9694 8.01114 8.08065 8.17597 8.29421 8.43178 8.58463 8.74846 8.91902 9.09226 9.26457 9.43283 9.59454 9.74777 9.89118 10.024 10.1458 10.2566 10.3567 10.4467 10.5273 10.6186 10.7204 10.833 10.9568 11.0919 11.238 11.3946 11.5606 11.7344 11.914 12.0966 12.2791 12.4576 12.628 12.7862 12.9278 13.0488 13.1456 13.2156 13.2568 8.17181 8.21078 8.27583 8.36501 8.4755 8.60382 8.74607 8.89815 9.05599 9.21581 9.37421 9.52834 9.6759 9.81519 9.94506 10.0648 10.1743 10.2735 10.3628 10.4428 10.5142 10.5987 10.6927 10.7969 10.9114 11.0365 11.172 11.3175 11.4719 11.6338 11.8015 11.9723 12.1432 12.3107 12.4709 12.6197 12.7531 12.8671 12.9584 13.0241 13.0626 8.35351 8.38984 8.45063 8.53398 8.63715 8.75679 8.88912 9.03023 9.17628 9.3237 9.46932 9.61052 9.74522 9.87189 9.98955 10.0977 10.1961 10.285 10.3648 10.4361 10.4996 10.5785 10.6663 10.7634 10.8703 10.987 11.1135 11.2494 11.3937 11.5454 11.7025 11.8628 12.0234 12.181 12.332 12.4724 12.5982 12.7057 12.7917 12.8536 12.8894 8.51766 8.55146 8.60822 8.68605 8.78231 8.89376 9.01679 9.14766 9.28274 9.41867 9.5525 9.68183 9.80475 9.91993 10.0265 10.1241 10.2126 10.2923 10.3636 10.4272 10.4836 10.5581 10.6409 10.7323 10.8328 10.9425 11.0614 11.189 11.3248 11.4674 11.6153 11.7663 11.9178 12.0665 12.2091 12.3417 12.4606 12.5622 12.6434 12.7015 12.7348 8.66616 8.69756 8.75047 8.82307 8.91278 9.01649 9.13076 9.25202 9.37683 9.50205 9.62495 9.74329 9.85537 9.96002 10.0565 10.1445 10.2241 10.2955 10.3592 10.4158 10.466 10.5371 10.6159 10.7027 10.798 10.9018 11.0143 11.135 11.2633 11.3981 11.538 11.6808 11.8241 11.9649 12.0999 12.2255 12.3381 12.4343 12.5109 12.5655 12.5964 8.80122 8.83033 8.87959 8.9472 9.0307 9.12709 9.23308 9.34528 9.46046 9.57566 9.68836 9.7965 9.89856 9.99349 10.0807 10.16 10.2314 10.2953 10.3522 10.4025 10.447 10.5155 10.5911 10.6743 10.7653 10.8644 10.9715 11.0863 11.2083 11.3364 11.4692 11.6049 11.741 11.8748 12.003 12.1223 12.2291 12.3202 12.3927 12.444 12.4727 8.92419 8.95113 8.99689 9.05975 9.13733 9.22676 9.32489 9.42853 9.53463 9.64041 9.74355 9.84217 9.93491 10.0209 10.0995 10.1708 10.2348 10.2918 10.3424 10.3871 10.4265 10.493 10.5663 10.6466 10.7342 10.8294 10.9321 11.042 11.1586 11.281 11.4078 11.5372 11.667 11.7945 11.9167 12.0303 12.1319 12.2185 12.2871 12.3354 12.3619 9.03662 9.0615 9.10393 9.16225 9.23417 9.31696 9.40762 9.50313 9.60062 9.69752 9.79167 9.88137 9.96541 10.043 10.1138 10.1776 10.2348 10.2856 10.3305 10.37 10.4046 10.4697 10.5412 10.6193 10.7043 10.7964 10.8955 11.0014 11.1135 11.2311 11.3527 11.4768 11.6011 11.7232 11.84 11.9485 12.0455 12.1279 12.193 12.2385 12.263 9.13952 9.16242 9.20166 9.25562 9.32213 9.39856 9.48208 9.56984 9.65915 9.74764 9.8333 9.91463 9.99052 10.0603 10.1237 10.1808 10.2316 10.2766 10.3163 10.351 10.3812 10.4454 10.5157 10.5921 10.6751 10.7648 10.8611 10.9637 11.0723 11.1858 11.3032 11.4227 11.5424 11.6597 11.7718 11.8759 11.9687 12.0473 12.1092 12.1521 12.1747 9.23398 9.25501 9.29118 9.34096 9.40225 9.47258 9.54926 9.62962 9.71114 9.79162 9.86926 9.94268 10.0109 10.0735 10.13 10.1807 10.2258 10.2655 10.3003 10.3306 10.3566 10.4202 10.4895 10.5649 10.6464 10.7343 10.8284 10.9285 11.0342 11.1446 11.2584 11.3742 11.4899 11.6032 11.7114 11.8115 11.9007 11.976 12.035 12.0756 12.0964 9.32073 9.33996 9.37318 9.41893 9.4752 9.53965 9.60976 9.68302 9.75709 9.82996 9.89999 9.96594 10.027 10.0827 10.1329 10.1778 10.2174 10.2523 10.2826 10.3087 10.3308 10.394 10.4627 10.5372 10.6178 10.7043 10.7969 10.8952 10.9987 11.1066 11.2178 11.3306 11.4431 11.5531 11.6579 11.7547 11.8407 11.9132 11.9696 12.008 12.0272 9.40059 9.4181 9.44847 9.49031 9.54173 9.60051 9.66428 9.73072 9.79767 9.86328 9.92607 9.98497 10.0393 10.0886 10.1329 10.1723 10.207 10.2373 10.2635 10.2857 10.304 10.3668 10.4351 10.5091 10.589 10.6747 10.7662 10.8633 10.9653 11.0715 11.1806 11.2912 11.4013 11.5087 11.6108 11.7049 11.7883 11.8582 11.9124 11.9489 11.9665 9.47405 9.48991 9.51753 9.55559 9.60231 9.6556 9.71327 9.77315 9.83327 9.89195 9.94787 10.0001 10.048 10.0914 10.1302 10.1645 10.1946 10.2208 10.2431 10.2617 10.2764 10.3387 10.4066 10.4803 10.5597 10.645 10.736 10.8323 10.9335 11.0386 11.1464 11.2555 11.3639 11.4694 11.5695 11.6615 11.7428 11.8106 11.8629 11.8977 11.9139 9.54171 9.55598 9.58094 9.61533 9.65749 9.70547 9.75724 9.81081 9.86438 9.91645 9.96585 10.0118 10.0537 10.0915 10.1252 10.1549 10.1808 10.2031 10.2219 10.237 10.2481 10.3099 10.3774 10.4507 10.5299 10.615 10.7058 10.8019 10.9028 11.0074 11.1147 11.223 11.3304 11.4348 11.5335 11.6241 11.7038 11.7701 11.8208 11.8541 11.869 9.60392 9.61666 9.63904 9.66987 9.7076 9.75045 9.79652 9.84402 9.89132 9.93709 9.98031 10.0203 10.0567 10.0893 10.1182 10.1436 10.1656 10.1844 10.1999 10.2118 10.2195 10.2804 10.3472 10.4202 10.4992 10.5843 10.6753 10.7716 10.8727 10.9776 11.085 11.1932 11.3004 11.4044 11.5025 11.5922 11.671 11.7362 11.7857 11.8178 11.8316 9.6611 9.67237 9.69224 9.71961 9.75305 9.79092 9.83149 9.87316 9.91447 9.95425 9.99163 10.026 10.0572 10.085 10.1096 10.131 10.1495 10.1651 10.1776 10.1865 10.1909 10.2504 10.3163 10.3887 10.4675 10.5528 10.6441 10.741 10.8429 10.9485 11.0567 11.1657 11.2735 11.3778 11.476 11.5657 11.644 11.7087 11.7574 11.7886 11.8013 9.71346 9.72333 9.74078 9.76479 9.79407 9.82713 9.86242 9.89851 9.93412 9.96823 10.0001 10.0293 10.0556 10.079 10.0996 10.1175 10.1327 10.1454 10.1551 10.1612 10.1624 10.22 10.2846 10.3562 10.4347 10.52 10.6119 10.7097 10.8128 10.9198 11.0295 11.1399 11.2491 11.3546 11.4538 11.5441 11.6227 11.6873 11.7357 11.7663 11.7782 9.76131 9.76982 9.78492 9.80568 9.83094 9.85937 9.8896 9.92036 9.95056 9.97934 10.0061 10.0305 10.0523 10.0717 10.0886 10.1032 10.1156 10.1257 10.1329 10.1364 10.1347 10.1897 10.2523 10.3226 10.4005 10.4858 10.5783 10.6774 10.782 10.891 11.0028 11.1155 11.2269 11.3344 11.4354 11.5272 11.6069 11.6721 11.7207 11.751 11.7621 9.80474 9.81196 9.82479 9.84243 9.86383 9.88783 9.91324 9.93896 9.96408 9.98788 10.0099 10.0298 10.0476 10.0633 10.0769 10.0887 10.0985 10.1062 10.1112 10.1124 10.1079 10.1596 10.2195 10.2879 10.3648 10.45 10.5431 10.6435 10.7501 10.8616 10.9762 11.092 11.2064 11.3169 11.4206 11.5147 11.5963 11.6628 11.7121 11.7425 11.753 9.84394 9.84992 9.86058 9.87522 9.89293 9.91272 9.93356 9.95456 9.97494 9.99414 10.0118 10.0277 10.0418 10.0542 10.0649 10.0741 10.0817 10.0874 10.0905 10.0897 10.0828 10.13 10.1865 10.2523 10.3276 10.4123 10.5059 10.6077 10.7166 10.8311 10.9493 11.0688 11.1873 11.3017 11.4092 11.5065 11.5909 11.6595 11.71 11.7409 11.7512 9.87889 9.88371 9.89232 9.90412 9.91835 9.93418 9.95078 9.96739 9.98342 9.99843 10.0121 10.0244 10.0352 10.0447 10.0529 10.0599 10.0655 10.0695 10.071 10.0686 10.0596 10.1014 10.1533 10.2156 10.2887 10.3724 10.4663 10.5697 10.6811 10.7991 10.9214 11.0457 11.169 11.2885 11.4007 11.5024 11.5905 11.662 11.7146 11.7464 11.7566 9.90967 9.91341 9.92009 9.92923 9.94022 9.95238 9.96506 9.97769 9.98978 10.001 10.0112 10.0203 10.0283 10.0353 10.0413 10.0464 10.0504 10.0529 10.0532 10.0496 10.0391 10.0743 10.1204 10.1782 10.2481 10.3302 10.4242 10.5289 10.6431 10.765 10.8921 11.0219 11.1512 11.2768 11.395 11.5022 11.5951 11.6705 11.7259 11.7592 11.7696 9.93619 9.93893 9.94385 9.95056 9.9586 9.96745 9.97662 9.98568 9.99431 10.0023 10.0094 10.0158 10.0214 10.0262 10.0304 10.0338 10.0365 10.038 10.0374 10.0331 10.022 10.0491 10.088 10.1399 10.2057 10.2856 10.379 10.4851 10.6022 10.7283 10.8609 10.9971 11.1334 11.2662 11.3916 11.5057 11.6047 11.6851 11.7441 11.7796 11.7904 9.95841 9.96027 9.9636 9.96815 9.97356 9.97949 9.9856 9.9916 9.99727 10.0025 10.0071 10.0112 10.0148 10.0179 10.0205 10.0228 10.0244 10.0251 10.024 10.0197 10.0087 10.0265 10.0566 10.1012 10.1616 10.2381 10.3305 10.4376 10.5577 10.6885 10.8272 10.9706 11.115 11.2564 11.3904 11.5127 11.6191 11.7057 11.7694 11.8077 11.8195 9.97611 9.97722 9.97922 9.98194 9.98515 9.98866 9.99224 9.99573 9.999 10.002 10.0046 10.0069 10.0089 10.0107 10.0122 10.0134 10.0143 10.0145 10.0133 10.0096 10.0001 10.0074 10.0268 10.0622 10.1156 10.1878 10.2785 10.3862 10.5093 10.645 10.7905 10.942 11.0956 11.2468 11.3909 11.523 11.6384 11.7326 11.8021 11.8441 11.8572 9.98915 9.98968 9.99062 9.9919 9.99341 9.99505 9.99671 9.99831 9.99981 10.0012 10.0023 10.0034 10.0043 10.005 10.0057 10.0062 10.0066 10.0066 10.0058 10.0034 9.99649 9.99285 9.99944 10.0232 10.0678 10.1344 10.2224 10.3304 10.4563 10.5973 10.75 10.9106 11.0746 11.2371 11.3929 11.5364 11.6625 11.7659 11.8426 11.8893 11.9041 9.99721 9.99735 9.99761 9.99795 9.99835 9.99879 9.99922 9.99963 10 10.0004 10.0007 10.0009 10.0011 10.0013 10.0015 10.0016 10.0017 10.0016 10.0013 10.0005 9.99849 9.98418 9.97524 9.9847 10.0183 10.0776 10.162 10.2698 10.3984 10.5447 10.7053 10.8757 11.0513 11.2266 11.3958 11.5528 11.6914 11.8058 11.8912 11.9437 11.9608 10.0001 10.0001 10 10 9.99998 9.99996 9.99994 9.99993 9.99992 9.99992 9.99993 9.99993 9.99994 9.99995 9.99995 9.99996 10 10 10.0004 10.0007 10.0011 9.98461 9.95634 9.94723 9.96711 10.0173 10.0969 10.2037 10.3348 10.4867 10.6556 10.8368 11.0252 11.2148 11.3993 11.5717 11.725 11.8526 11.9485 12.008 12.0282 </DataArray> 
<DataArray type="Float32" Name="sigma_xy" format="ascii" NumberOfComponents="1"> 
9.02027e-05 0.750295 1.50753 2.26752 3.02573 3.77729 4.51711 5.2398 5.93982 6.61149 7.24905 7.84678 8.39908 8.90056 9.34615 9.73119 10.0516 10.3038 10.4852 10.5935 10.6269 10.5935 10.4852 10.3038 10.0516 9.73119 9.34615 8.90056 8.39908 7.84678 7.24905 6.61149 5.93982 5.2398 4.51711 3.77729 3.02573 2.26752 1.50753 0.750295 9.02027e-05 5.56892e-06 0.676729 1.35506 2.02968 2.695 3.34529 3.97482 4.5779 5.1491 5.68328 6.17577 6.62245 7.01984 7.36515 7.65638 7.89229 8.07239 8.19693 8.26684 8.28359 8.24907 8.28359 8.26684 8.19693 8.07239 7.89229 7.65638 7.36515 7.01984 6.62245 6.17577 5.68328 5.1491 4.5779 3.97482 3.34529 2.695 2.02968 1.35506 0.676729 5.56892e-06 -3.89874e-05 0.611719 1.22129 1.82271 2.4099 2.97682 3.51767 4.02698 4.49984 4.93198 5.3199 5.66094 5.95332 6.19616 6.38942 6.53385 6.63093 6.68271 6.6917 6.66081 6.59322 6.66081 6.6917 6.68271 6.63093 6.53385 6.38942 6.19616 5.95332 5.66094 5.3199 4.93198 4.49984 4.02698 3.51767 2.97682 2.4099 1.82271 1.22129 0.611719 -3.89874e-05 5.3472e-06 0.554702 1.10456 1.64332 2.16477 2.66288 3.13208 3.56737 3.9645 4.32012 4.63178 4.89805 5.11843 5.29331 5.42393 5.51216 5.56045 5.57167 5.54894 5.49555 5.41487 5.49555 5.54894 5.57167 5.56045 5.51216 5.42393 5.29331 5.11843 4.89805 4.63178 4.32012 3.9645 3.56737 3.13208 2.66288 2.16477 1.64332 1.10456 0.554702 5.3472e-06 -2.03351e-05 0.504666 1.00271 1.48779 1.95373 2.39469 2.80544 3.1815 3.5193 3.81624 4.07077 4.28235 4.45138 4.57912 4.66752 4.71911 4.73685 4.72394 4.68373 4.61958 4.53473 4.61958 4.68373 4.72394 4.73685 4.71911 4.66752 4.57912 4.45138 4.28235 4.07077 3.81624 3.5193 3.1815 2.80544 2.39469 1.95373 1.48779 1.00271 0.504666 -2.03351e-05 -3.04836e-05 0.460771 0.913768 1.3527 1.77154 2.16472 2.52742 2.85566 3.14646 3.3979 3.60911 3.78021 3.91223 4.00696 4.0668 4.09458 4.09344 4.06667 4.01758 3.94938 3.8651 3.94938 4.01758 4.06667 4.09344 4.09458 4.0668 4.00696 3.91223 3.78021 3.60911 3.3979 3.14646 2.85566 2.52742 2.16472 1.77154 1.3527 0.913768 0.460771 -3.04836e-05 -1.10089e-05 0.422232 0.83596 1.23505 1.61367 1.96658 2.28935 2.57845 2.83143 3.0469 3.22451 3.36488 3.46944 3.54032 3.58015 3.59189 3.5787 3.54381 3.49036 3.42137 3.33965 3.42137 3.49036 3.54381 3.5787 3.59189 3.58015 3.54032 3.46944 3.36488 3.22451 3.0469 2.83143 2.57845 2.28935 1.96658 1.61367 1.23505 0.83596 0.422232 -1.10089e-05 -2.11709e-05 0.388257 0.767625 1.13214 1.47624 1.79498 2.08429 2.34108 2.56332 2.75005 2.90132 3.0181 3.10209 3.1556 3.18136 3.18236 3.16169 3.12244 3.06758 2.99992 2.92204 2.99992 3.06758 3.12244 3.16169 3.18236 3.18136 3.1556 3.10209 3.0181 2.90132 2.75005 2.56332 2.34108 2.08429 1.79498 1.47624 1.13214 0.767625 0.388257 -2.11709e-05 -1.86083e-05 0.358237 0.707417 1.04179 1.35604 1.64555 1.90657 2.13637 2.33328 2.49667 2.62691 2.72518 2.79337 2.83388 2.84946 2.84304 2.81763 2.77615 2.72141 2.65601 2.58231 2.65601 2.72141 2.77615 2.81763 2.84304 2.84946 2.83388 2.79337 2.72518 2.62691 2.49667 2.33328 2.13637 1.90657 1.64555 1.35604 1.04179 0.707417 0.358237 -1.86083e-05 -2.67671e-05 0.331591 0.654139 0.962105 1.25042 1.51476 1.75167 1.95874 2.13458 2.27886 2.39213 2.47574 2.53169 2.5624 2.57058 2.5591 2.53082 2.4885 2.43477 2.37202 2.30236 2.37202 2.43477 2.4885 2.53082 2.5591 2.57058 2.5624 2.53169 2.47574 2.39213 2.27886 2.13458 1.95874 1.75167 1.51476 1.25042 0.962105 0.654139 0.331591 -2.67671e-05 -1.62794e-05 0.307882 0.606832 0.891538 1.15718 1.39968 1.61587 1.80359 1.96172 2.0901 2.18946 2.26126 2.30753 2.33068 2.33337 2.31834 2.28833 2.24594 2.19358 2.13344 2.06746 2.13344 2.19358 2.24594 2.28833 2.31834 2.33337 2.33068 2.30753 2.26126 2.18946 2.0901 1.96172 1.80359 1.61587 1.39968 1.15718 0.891538 0.606832 0.307882 -1.62794e-05 -2.21613e-05 0.286686 0.564642 0.828766 1.07447 1.29791 1.49617 1.66732 1.81041 1.92546 2.01331 2.07548 2.114 2.13125 2.12981 2.1123 2.08131 2.03927 1.98844 1.93082 1.86822 1.93082 1.98844 2.03927 2.08131 2.1123 2.12981 2.13125 2.114 2.07548 2.01331 1.92546 1.81041 1.66732 1.49617 1.29791 1.07447 0.828766 0.564642 0.286686 -2.21613e-05 -1.88827e-05 0.267685 0.526884 0.772704 1.00077 1.20748 1.3901 1.54689 1.67709 1.78081 1.85899 1.91316 1.94535 1.95787 1.95321 1.93387 1.9023 1.86077 1.81141 1.75607 1.69644 1.75607 1.81141 1.86077 1.9023 1.93387 1.95321 1.95787 1.94535 1.91316 1.85899 1.78081 1.67709 1.54689 1.3901 1.20748 1.00077 0.772704 0.526884 0.267685 -1.88827e-05 -2.25986e-05 0.250574 0.492945 0.722416 0.934815 1.12673 1.29561 1.4399 1.55894 1.65295 1.72291 1.77036 1.79729 1.80595 1.79872 1.77799 1.74606 1.7051 1.65706 1.60369 1.54652 1.60369 1.65706 1.7051 1.74606 1.77799 1.79872 1.80595 1.79729 1.77036 1.72291 1.65295 1.55894 1.4399 1.29561 1.12673 0.934815 0.722416 0.492945 0.250574 -2.25986e-05 -1.80607e-05 0.235118 0.462328 0.677123 0.875515 1.05427 1.211 1.34429 1.45357 1.53915 1.60201 1.64371 1.66617 1.67157 1.6622 1.64032 1.60813 1.56764 1.52069 1.46892 1.4137 1.46892 1.52069 1.56764 1.60813 1.64032 1.6622 1.67157 1.66617 1.64371 1.60201 1.53915 1.45357 1.34429 1.211 1.05427 0.875515 0.677123 0.462328 0.235118 -1.80607e-05 -2.057e-05 0.221094 0.434589 0.636148 0.821955 0.988933 1.13485 1.25838 1.35906 1.43723 1.49391 1.5306 1.54919 1.55178 1.54055 1.51767 1.4852 1.44505 1.39894 1.34839 1.2947 1.34839 1.39894 1.44505 1.4852 1.51767 1.54055 1.55178 1.54919 1.5306 1.49391 1.43723 1.35906 1.25838 1.13485 0.988933 0.821955 0.636148 0.434589 0.221094 -2.057e-05 -1.84974e-05 0.208328 0.40936 0.598923 0.773358 0.929732 1.06594 1.18074 1.27375 1.34535 1.39653 1.42878 1.44394 1.44401 1.43109 1.40724 1.37441 1.33441 1.28886 1.23918 1.18659 1.23918 1.28886 1.33441 1.37441 1.40724 1.43109 1.44401 1.44394 1.42878 1.39653 1.34535 1.27375 1.18074 1.06594 0.929732 0.773358 0.598923 0.40936 0.208328 -1.84974e-05 -2.01014e-05 0.196652 0.386308 0.564945 0.729049 0.875814 1.00324 1.11018 1.19629 1.26197 1.30822 1.33648 1.34852 1.34628 1.33176 1.30693 1.27363 1.23359 1.18832 1.13916 1.08727 1.13916 1.18832 1.23359 1.27363 1.30693 1.33176 1.34628 1.34852 1.33648 1.30822 1.26197 1.19629 1.11018 1.00324 0.875814 0.729049 0.564945 0.386308 0.196652 -2.01014e-05 -1.81228e-05 0.185932 0.365154 0.533787 0.688447 0.826443 0.945871 1.04565 1.12549 1.18578 1.22752 1.25212 1.26127 1.25685 1.24076 1.21489 1.18099 1.14069 1.09544 1.0465 0.994921 1.0465 1.09544 1.14069 1.18099 1.21489 1.24076 1.25685 1.26127 1.25212 1.22752 1.18578 1.12549 1.04565 0.945871 0.826443 0.688447 0.533787 0.365154 0.185932 -1.81228e-05 -1.92139e-05 0.176037 0.345643 0.505064 0.651037 0.780977 0.893062 0.986271 1.06034 1.11569 1.15326 1.17444 1.18087 1.17434 1.15669 1.12971 1.09507 1.05434 1.00886 0.959847 0.908288 0.959847 1.00886 1.05434 1.09507 1.12971 1.15669 1.17434 1.18087 1.17444 1.15326 1.11569 1.06034 0.986271 0.893062 0.780977 0.651037 0.505064 0.345643 0.176037 -1.92139e-05 -1.81178e-05 0.166863 0.327554 0.478441 0.616372 0.738854 0.84414 0.931259 0.999976 1.0507 1.08437 1.10232 1.10614 1.09755 1.07831 1.05013 1.01463 0.97328 0.927377 0.878056 0.826269 0.878056 0.927377 0.97328 1.01463 1.05013 1.07831 1.09755 1.10614 1.10232 1.08437 1.0507 0.999976 0.931259 0.84414 0.738854 0.616372 0.478441 0.327554 0.166863 -1.81178e-05 -1.88973e-05 0.158305 0.310682 0.453613 0.584044 0.69957 0.798509 0.879936 0.943634 0.990012 1.01999 1.03485 1.03614 1.0255 1.00465 0.975211 0.938735 0.896626 0.850128 0.800323 0.748119 0.800323 0.850128 0.896626 0.938735 0.975211 1.00465 1.0255 1.03614 1.03485 1.01999 0.990012 0.943634 0.879936 0.798509 0.69957 0.584044 0.453613 0.310682 0.158305 -1.88973e-05 -1.8081e-05 0.150274 0.294847 0.430306 0.553691 0.662675 0.755636 0.831688 0.890633 0.932877 0.959313 0.971194 0.970006 0.957349 0.934853 0.904096 0.866558 0.823588 0.77638 0.725973 0.673238 0.725973 0.77638 0.823588 0.866558 0.904096 0.934853 0.957349 0.970006 0.971194 0.959313 0.932877 0.890633 0.831688 0.755636 0.662675 0.553691 0.430306 0.294847 0.150274 -1.8081e-05 -1.86985e-05 0.142682 0.279876 0.408265 0.524976 0.627756 0.715039 0.785974 0.84038 0.87866 0.901686 0.910676 0.907066 0.892405 0.868261 0.836154 0.797508 0.753621 0.705643 0.654583 0.601284 0.654583 0.705643 0.753621 0.797508 0.836154 0.868261 0.892405 0.907066 0.910676 0.901686 0.87866 0.84038 0.785974 0.715039 0.627756 0.524976 0.408265 0.279876 0.142682 -1.86985e-05 -1.82832e-05 0.135453 0.265612 0.387255 0.49759 0.594434 0.676274 0.742294 0.792328 0.826777 0.846497 0.85267 0.846691 0.830056 0.80428 0.770828 0.731071 0.686263 0.637521 0.58583 0.532026 0.58583 0.637521 0.686263 0.731071 0.770828 0.80428 0.830056 0.846691 0.85267 0.846497 0.826777 0.792328 0.742294 0.676274 0.594434 0.49759 0.387255 0.265612 0.135453 -1.82832e-05 -1.88362e-05 0.128506 0.2519 0.367047 0.471236 0.56235 0.638929 0.700192 0.74599 0.776723 0.793231 0.796667 0.788386 0.769835 0.742478 0.707727 0.666908 0.621236 0.571802 0.519583 0.465422 0.519583 0.571802 0.621236 0.666908 0.707727 0.742478 0.769835 0.788386 0.796667 0.793231 0.776723 0.74599 0.700192 0.638929 0.56235 0.471236 0.367047 0.2519 0.128506 -1.88362e-05 -1.86833e-05 0.12177 0.238595 0.347428 0.445636 0.531168 0.602619 0.659241 0.700907 0.72802 0.741406 0.742192 0.731694 0.711315 0.682468 0.646517 0.604743 0.558328 0.50835 0.455791 0.401525 0.455791 0.50835 0.558328 0.604743 0.646517 0.682468 0.711315 0.731694 0.742192 0.741406 0.72802 0.700907 0.659241 0.602619 0.531168 0.445636 0.347428 0.238595 0.12177 -1.86833e-05 -1.92517e-05 0.115167 0.225548 0.32818 0.420511 0.500559 0.566971 0.619042 0.656666 0.680252 0.690616 0.688861 0.676266 0.65419 0.623995 0.586999 0.544439 0.497474 0.447174 0.39455 0.340535 0.39455 0.447174 0.497474 0.544439 0.586999 0.623995 0.65419 0.676266 0.688861 0.690616 0.680252 0.656666 0.619042 0.566971 0.500559 0.420511 0.32818 0.225548 0.115167 -1.92517e-05 -1.93607e-05 0.108626 0.212616 0.309095 0.395595 0.470204 0.53163 0.579211 0.612868 0.63302 0.640475 0.636314 0.621779 0.598183 0.56684 0.529016 0.485912 0.438662 0.388348 0.336027 0.282733 0.336027 0.388348 0.438662 0.485912 0.529016 0.56684 0.598183 0.621779 0.636314 0.640475 0.63302 0.612868 0.579211 0.53163 0.470204 0.395595 0.309095 0.212616 0.108626 -1.93607e-05 -1.99571e-05 0.102067 0.199644 0.289952 0.370608 0.439782 0.496244 0.539382 0.569147 0.585973 0.590661 0.584268 0.568001 0.543124 0.510895 0.472532 0.429195 0.382004 0.332061 0.280503 0.228501 0.280503 0.332061 0.382004 0.429195 0.472532 0.510895 0.543124 0.568001 0.584268 0.590661 0.585973 0.569147 0.539382 0.496244 0.439782 0.370608 0.289952 0.199644 0.102067 -1.99571e-05 -2.0313e-05 0.0954111 0.18648 0.270532 0.345279 0.408975 0.460465 0.499191 0.525143 0.538767 0.540861 0.532457 0.51472 0.488861 0.456083 0.417544 0.374367 0.327658 0.278559 0.228319 0.1783 0.228319 0.278559 0.327658 0.374367 0.417544 0.456083 0.488861 0.51472 0.532457 0.540861 0.538767 0.525143 0.499191 0.460465 0.408975 0.345279 0.270532 0.18648 0.0954111 -2.0313e-05 -2.10257e-05 0.0885704 0.172957 0.250598 0.319312 0.377453 0.423944 0.458291 0.480523 0.491103 0.490822 0.480684 0.461807 0.435342 0.402425 0.364155 0.321607 0.275884 0.228184 0.179899 0.132665 0.179899 0.228184 0.275884 0.321607 0.364155 0.402425 0.435342 0.461807 0.480684 0.490822 0.491103 0.480523 0.458291 0.423944 0.377453 0.319312 0.250598 0.172957 0.0885704 -2.10257e-05 -2.1605e-05 0.0814568 0.158904 0.229909 0.292414 0.344882 0.386328 0.416327 0.434951 0.44268 0.440294 0.428762 0.409147 0.382529 0.349969 0.312495 0.271135 0.226988 0.181323 0.135726 0.0921933 0.135726 0.181323 0.226988 0.271135 0.312495 0.349969 0.382529 0.409147 0.428762 0.440294 0.44268 0.434951 0.416327 0.386328 0.344882 0.292414 0.229909 0.158904 0.0814568 -2.1605e-05 -2.2322e-05 0.0739659 0.144124 0.208195 0.26426 0.310907 0.347256 0.372954 0.388119 0.393242 0.389086 0.376576 0.356705 0.330475 0.298856 0.262797 0.223268 0.181365 0.138445 0.0963373 0.0574917 0.0963373 0.138445 0.181365 0.223268 0.262797 0.298856 0.330475 0.356705 0.376576 0.389086 0.393242 0.388119 0.372954 0.347256 0.310907 0.26426 0.208195 0.144124 0.0739659 -2.2322e-05 -2.31517e-05 0.065992 0.128419 0.185178 0.234517 0.275165 0.306356 0.327817 0.339708 0.342527 0.337007 0.324013 0.304459 0.279249 0.24925 0.215319 0.178358 0.139456 0.100071 0.0623221 0.0292135 0.0623221 0.100071 0.139456 0.178358 0.215319 0.24925 0.279249 0.304459 0.324013 0.337007 0.342527 0.339708 0.327817 0.306356 0.275165 0.234517 0.185178 0.128419 0.065992 -2.31517e-05 -2.40582e-05 0.0574094 0.111554 0.160542 0.202815 0.237264 0.263245 0.280568 0.289428 0.290316 0.283919 0.271029 0.252457 0.228996 0.201397 0.170407 0.136844 0.101778 0.0667674 0.0342586 0.00796193 0.0342586 0.0667674 0.101778 0.136844 0.170407 0.201397 0.228996 0.252457 0.271029 0.283919 0.290316 0.289428 0.280568 0.263245 0.237264 0.202815 0.160542 0.111554 0.0574094 -2.40582e-05 -2.50747e-05 0.0480883 0.093287 0.13396 0.168772 0.196797 0.217526 0.230846 0.236976 0.236383 0.229687 0.217581 0.200759 0.179881 0.155564 0.128433 0.0992001 0.0689002 0.0391542 0.0127734 -0.00569287 0.0127734 0.0391542 0.0689002 0.0992001 0.128433 0.155564 0.179881 0.200759 0.217581 0.229687 0.236383 0.236976 0.230846 0.217526 0.196797 0.168772 0.13396 0.093287 0.0480883 -2.50747e-05 -2.5759e-05 0.0378685 0.0733266 0.105045 0.131949 0.153319 0.168783 0.178295 0.182079 0.180551 0.174235 0.1637 0.1495 0.132145 0.112108 0.0898702 0.0660148 0.041493 0.0178983 -0.00162669 -0.0116435 -0.00162669 0.0178983 0.041493 0.0660148 0.0898702 0.112108 0.132145 0.1495 0.1637 0.174235 0.180551 0.182079 0.178295 0.168783 0.153319 0.131949 0.105045 0.0733266 0.0378685 -2.5759e-05 -2.70582e-05 0.0265822 0.0513665 0.0733915 0.0918884 0.106363 0.116579 0.122543 0.124453 0.122635 0.117486 0.109419 0.0988231 0.086045 0.0714025 0.0552154 0.0379174 0.0202875 0.00377026 -0.00832117 -0.0102367 -0.00832117 0.00377026 0.0202875 0.0379174 0.0552154 0.0714025 0.086045 0.0988231 0.109419 0.117486 0.122635 0.124453 0.122543 0.116579 0.106363 0.0918884 0.0733915 0.0513665 0.0265822 -2.70582e-05 -2.78363e-05 0.0140339 0.0270553 0.0385453 0.0480898 0.0554357 0.0604759 0.0632365 0.0638451 0.0624953 0.0594107 0.0548158 0.0489147 0.0418818 0.0338735 0.0250427 0.0156355 0.00611244 -0.00254525 -0.00763712 -0.00387346 -0.00763712 -0.00254525 0.00611244 0.0156355 0.0250427 0.0338735 0.0418818 0.0489147 0.0548158 0.0594107 0.0624953 0.0638451 0.0632365 0.0604759 0.0554357 0.0480898 0.0385453 0.0270553 0.0140339 -2.78363e-05 -2.72082e-05 1.67641e-05 2.33389e-05 2.78632e-05 2.72409e-05 2.16416e-05 1.37716e-05 4.39267e-06 -4.62749e-06 -1.27013e-05 -1.96296e-05 -2.50878e-05 -3.16096e-05 -3.61186e-05 -4.63622e-05 -5.4337e-05 -5.71228e-05 -7.19341e-05 4.62305e-05 0.000450251 0.00245079 0.000450251 4.62305e-05 -7.19341e-05 -5.71228e-05 -5.4337e-05 -4.63622e-05 -3.61186e-05 -3.16096e-05 -2.50878e-05 -1.96296e-05 -1.27013e-05 -4.62749e-06 4.39267e-06 1.37716e-05 2.16416e-05 2.72409e-05 2.78632e-05 2.33389e-05 1.67641e-05 -2.72082e-05 </DataArray> 
<DataArray type="Float32" Name="sigma_yy" format="ascii" NumberOfComponents="1"> 